#           x wallShearS... wallShearS... wallShearS...
      0.04075     -0.318509    -0.0498493   2.75043e-22
    0.0710455     -0.105764  -1.60969e-05             0
     0.101341    -0.0945806  -4.45368e-06             0
     0.131636    -0.0889078  -3.44906e-06             0
     0.161932    -0.0849666  -2.32477e-06             0
     0.192227    -0.0822356   -1.7002e-06             0
     0.222523     -0.080076  -1.43807e-06             0
     0.252818     -0.078208  -1.25642e-06             0
     0.283114    -0.0765758  -1.09864e-06             0


     0.313409    -0.0751463  -9.64696e-07             0
     0.343705    -0.0738852  -8.54122e-07             0
        0.374    -0.0727635  -7.64583e-07             0
     0.404295    -0.0717549   -6.9441e-07             0
     0.434591    -0.0708303  -6.35931e-07             0
     0.464886    -0.0699841  -5.83245e-07             0
     0.495182    -0.0692075  -5.37557e-07             0
     0.525477    -0.0684886  -4.98228e-07             0
     0.555773    -0.0678212   -4.6393e-07             0
     0.586068    -0.0671977  -4.33767e-07             0
     0.616364    -0.0666146  -4.06931e-07             0
     0.646659    -0.0660657  -3.83408e-07             0
     0.676955    -0.0655486  -3.61524e-07             0
      0.70725    -0.0650598  -3.42884e-07             0
     0.737545    -0.0645943    -3.276e-07             0
     0.767841    -0.0641487  -3.13782e-07             0
     0.798136    -0.0637215  -3.01336e-07             0
     0.828432    -0.0633119  -2.88221e-07             0
     0.858727    -0.0629197   -2.7632e-07             0
     0.889023    -0.0625439  -2.64911e-07             0


     0.919318    -0.0621827  -2.54297e-07             0
     0.949614    -0.0618364  -2.44248e-07             0
     0.979909    -0.0615027  -2.35658e-07             0
       1.0102    -0.0611802  -2.27557e-07             0
       1.0405    -0.0608699  -2.19097e-07             0
       1.0708    -0.0605703  -2.11475e-07             0


      1.10109    -0.0602807  -2.04524e-07             0
      1.13139    -0.0600017  -1.97797e-07             0
      1.16168    -0.0597299  -1.91383e-07             0
      1.19198    -0.0594677  -1.85225e-07             0
      1.22227     -0.059214  -1.79456e-07             0
      1.25257    -0.0589677   -1.7423e-07             0
      1.28286    -0.0587285  -1.69443e-07             0
      1.31316    -0.0584968  -1.63647e-07             0
      1.34345    -0.0582716  -1.59199e-07             0
      1.37375    -0.0580527  -1.54933e-07             0
      1.40405    -0.0578393  -1.50694e-07             0
      1.43434    -0.0576318  -1.46514e-07             0
      1.46464    -0.0574298  -1.42526e-07             0
      1.49493    -0.0572334  -1.39036e-07             0
      1.52523    -0.0570415  -1.35609e-07             0
      1.55552     -0.056854  -1.32203e-07             0
      1.58582    -0.0566716  -1.28757e-07             0
      1.61611    -0.0564937  -1.25568e-07             0
      1.64641    -0.0563198  -1.22084e-07             0
       1.6767    -0.0561497  -1.19111e-07             0
        1.707    -0.0559835   -1.1614e-07             0
       1.7373    -0.0558209  -1.13925e-07             0
      1.76759     -0.055662  -1.11351e-07             0
      1.79789    -0.0555067  -1.09173e-07             0
      1.82818    -0.0553546  -1.06405e-07             0
      1.85848    -0.0552056  -1.04985e-07             0
      1.88877    -0.0550597  -1.04657e-07             0
      1.91907    -0.0549169  -1.00915e-07             0
      1.94936    -0.0547771  -9.82122e-08             0
      1.97966      -0.05464  -9.61086e-08             0
      2.00995    -0.0545054  -9.44065e-08             0
      2.04025    -0.0543732  -9.29617e-08             0
      2.07055     -0.054243  -9.14496e-08             0
      2.10084    -0.0541149  -8.95803e-08             0
      2.13114    -0.0539892  -8.79333e-08             0
      2.16143     -0.053866  -8.64759e-08             0
      2.19173    -0.0537449  -8.25409e-08             0
      2.22202    -0.0536257  -7.93979e-08             0
      2.25232    -0.0535082   -8.1739e-08             0
      2.28261    -0.0533934  -8.04609e-08             0
      2.31291    -0.0532804  -8.00248e-08             0
       2.3432    -0.0531689  -7.94653e-08             0
       2.3735    -0.0530595  -7.69351e-08             0
       2.4038    -0.0529521  -7.60597e-08             0
      2.43409    -0.0528461  -7.49981e-08             0
      2.46439    -0.0527415  -7.30428e-08             0
      2.49468    -0.0526392  -7.26352e-08             0
      2.52498    -0.0525379  -7.41849e-08             0
      2.55527    -0.0524381  -7.88136e-08             0
      2.58557    -0.0523403   -7.4036e-08             0
      2.61586    -0.0522435  -6.82658e-08             0
      2.64616    -0.0521482  -6.73867e-08             0
      2.67645    -0.0520542  -6.68561e-08             0
      2.70675    -0.0519612   -6.6583e-08             0
      2.73705     -0.051869  -6.58175e-08             0
      2.76734    -0.0517779  -6.51386e-08             0
      2.79764    -0.0516903  -6.50546e-08             0
      2.82793    -0.0515996    -6.395e-08             0
      2.85823    -0.0515049   -6.1533e-08             0
      2.88852     -0.051426   -5.9367e-08             0
      2.91882    -0.0513557  -5.73404e-08             0
      2.94911     -0.051265   -6.1748e-08             0
      2.97941    -0.0511693  -6.77047e-08             0
       3.0097    -0.0379365  -5.28827e-08             0
         3.04     -0.023643   -3.6383e-08             0
