/*--------------------------------*- C++ -*----------------------------------*\
  =========                 |
  \\      /  F ield         | OpenFOAM: The Open Source CFD Toolbox
   \\    /   O peration     | Website:  https://openfoam.org
    \\  /    A nd           | Version:  13
     \\/     M anipulation  |
\*---------------------------------------------------------------------------*/
FoamFile
{
    format      ascii;
    class       volScalarField;
    location    "190";
    object      k;
}
// * * * * * * * * * * * * * * * * * * * * * * * * * * * * * * * * * * * * * //

dimensions      [0 2 -2 0 0 0 0];

internalField   nonuniform List<scalar> 
26820
(
0.00437042
0.00436389
0.00435854
0.00435446
0.00435172
0.00435045
0.00435058
0.00437042
0.00436387
0.00435851
0.00435442
0.00435166
0.00435038
0.00435049
0.00437041
0.00436385
0.00435847
0.00435437
0.0043516
0.00435031
0.00435043
0.00437039
0.00436381
0.00435842
0.0043543
0.00435152
0.00435023
0.00435034
0.00437038
0.00436376
0.00435835
0.00435421
0.00435141
0.00435011
0.00435021
0.00437036
0.00436371
0.00435825
0.00435409
0.00435127
0.00434996
0.00435005
0.00437033
0.00436363
0.00435814
0.00435395
0.0043511
0.00434978
0.00434987
0.00437031
0.00436355
0.00435801
0.00435378
0.00435089
0.00434957
0.00434965
0.00437027
0.00436346
0.00435786
0.00435359
0.00435066
0.00434934
0.0043494
0.00437024
0.00436335
0.00435769
0.00435337
0.0043504
0.00434907
0.00434912
0.0043702
0.00436323
0.0043575
0.00435314
0.00435011
0.00434878
0.00434882
0.00437015
0.0043631
0.00435729
0.00435287
0.00434979
0.00434846
0.00434849
0.0043701
0.00436295
0.00435707
0.00435258
0.00434944
0.00434811
0.00434814
0.00437005
0.0043628
0.00435682
0.00435227
0.00434907
0.00434774
0.00434777
0.00436999
0.00436263
0.00435656
0.00435194
0.00434866
0.00434735
0.00434737
0.00436993
0.00436245
0.00435627
0.00435157
0.00434822
0.00434693
0.00434694
0.00436987
0.00436225
0.00435597
0.00435118
0.00434776
0.00434649
0.0043465
0.0043698
0.00436205
0.00435566
0.00435079
0.00434733
0.00434609
0.00434612
0.00436973
0.00436184
0.00435537
0.00435049
0.00434709
0.00434589
0.00434597
0.00436965
0.0043616
0.00435497
0.00434991
0.0043464
0.00434521
0.00434523
0.00435165
0.00435371
0.00435673
0.00436074
0.00436578
0.00437191
0.00437919
0.00438774
0.00439761
0.00440912
0.00442161
0.00443368
0.00444505
0.00445571
0.00446574
0.00447519
0.00448414
0.00449265
0.0045008
0.00450865
0.00451627
0.00452373
0.0045311
0.00453848
0.00454596
0.00455366
0.00456176
0.00457044
0.00458003
0.00459096
0.00460395
0.00462018
0.00464193
0.00467337
0.00472773
0.00482625
0.0052654
0.0055465
0.00254113
0.00068052
0.00435157
0.00435364
0.00435667
0.00436068
0.00436573
0.00437187
0.00437917
0.00438772
0.00439761
0.00440912
0.00442163
0.00443371
0.00444509
0.00445577
0.00446579
0.00447525
0.0044842
0.00449272
0.00450087
0.00450872
0.00451634
0.0045238
0.00453117
0.00453854
0.00454602
0.00455373
0.00456182
0.0045705
0.00458009
0.00459102
0.00460401
0.00462023
0.00464195
0.00467335
0.00472759
0.00482579
0.00526292
0.00554321
0.00259121
0.000770075
0.0043515
0.00435357
0.00435661
0.00436064
0.0043657
0.00437186
0.00437917
0.00438774
0.00439765
0.00440918
0.00442171
0.00443381
0.0044452
0.00445589
0.00446592
0.00447539
0.00448434
0.00449286
0.00450101
0.00450886
0.00451648
0.00452394
0.00453131
0.00453868
0.00454616
0.00455386
0.00456195
0.00457064
0.00458023
0.00459117
0.00460417
0.0046204
0.00464215
0.00467357
0.00472783
0.00482604
0.00526284
0.00554056
0.00266248
0.000889697
0.00435143
0.00435351
0.00435656
0.00436061
0.00436569
0.00437186
0.0043792
0.0043878
0.00439773
0.00440929
0.00442185
0.00443398
0.00444539
0.00445609
0.00446613
0.0044756
0.00448456
0.00449308
0.00450123
0.00450908
0.0045167
0.00452415
0.00453152
0.00453889
0.00454637
0.00455408
0.00456217
0.00457087
0.00458046
0.00459141
0.00460443
0.0046207
0.00464252
0.00467406
0.00472853
0.00482718
0.00526669
0.00553883
0.0027351
0.00101044
0.00435132
0.00435343
0.00435651
0.00436058
0.00436568
0.00437188
0.00437924
0.00438787
0.00439783
0.00440943
0.00442204
0.00443421
0.00444565
0.00445637
0.00446642
0.0044759
0.00448486
0.00449338
0.00450153
0.00450938
0.00451699
0.00452444
0.00453181
0.00453918
0.00454666
0.00455437
0.00456247
0.00457117
0.00458078
0.00459175
0.0046048
0.00462113
0.00464305
0.00467478
0.00472963
0.0048291
0.00527457
0.00553713
0.00280056
0.00112192
0.00435118
0.00435332
0.00435643
0.00436054
0.00436568
0.00437191
0.00437931
0.00438797
0.00439798
0.00440961
0.00442228
0.0044345
0.00444597
0.00445672
0.00446679
0.00447627
0.00448524
0.00449376
0.00450191
0.00450975
0.00451736
0.00452481
0.00453217
0.00453954
0.00454702
0.00455473
0.00456284
0.00457156
0.00458119
0.00459218
0.00460528
0.00462168
0.00464373
0.0046757
0.00473109
0.00483169
0.00528638
0.00553519
0.00285653
0.00122205
0.00435101
0.00435319
0.00435634
0.00436049
0.00436567
0.00437195
0.00437939
0.0043881
0.00439815
0.00440984
0.00442257
0.00443484
0.00444637
0.00445714
0.00446724
0.00447673
0.0044857
0.00449422
0.00450237
0.00451021
0.00451781
0.00452525
0.00453261
0.00453998
0.00454746
0.00455518
0.00456329
0.00457202
0.00458167
0.00459271
0.00460586
0.00462235
0.00464456
0.00467682
0.00473288
0.00483492
0.0053021
0.00553292
0.00290314
0.00131171
0.00435081
0.00435304
0.00435624
0.00436043
0.00436566
0.00437199
0.00437949
0.00438826
0.00439836
0.00441011
0.00442292
0.00443526
0.00444683
0.00445764
0.00446776
0.00447726
0.00448624
0.00449476
0.0045029
0.00451074
0.00451834
0.00452577
0.00453313
0.0045405
0.00454798
0.0045557
0.00456382
0.00457257
0.00458225
0.00459333
0.00460655
0.00462315
0.00464555
0.00467816
0.004735
0.00483878
0.00532184
0.00553021
0.00294125
0.00139248
0.0043506
0.00435287
0.00435612
0.00436037
0.00436566
0.00437205
0.00437961
0.00438844
0.00439861
0.00441042
0.00442333
0.00443574
0.00444737
0.00445821
0.00446835
0.00447788
0.00448686
0.00449538
0.00450352
0.00451135
0.00451894
0.00452637
0.00453372
0.00454109
0.00454857
0.00455629
0.00456443
0.0045732
0.00458291
0.00459405
0.00460735
0.00462408
0.00464669
0.00467971
0.00473748
0.00484331
0.00534583
0.00552694
0.00297184
0.00146586
0.00435035
0.00435268
0.004356
0.00436031
0.00436566
0.00437212
0.00437975
0.00438865
0.0043989
0.00441078
0.00442379
0.00443629
0.00444798
0.00445887
0.00446904
0.00447857
0.00448756
0.00449609
0.00450422
0.00451204
0.00451963
0.00452705
0.0045344
0.00454175
0.00454923
0.00455697
0.00456512
0.00457391
0.00458366
0.00459486
0.00460826
0.00462514
0.00464801
0.00468149
0.00474033
0.00484858
0.00537444
0.00552305
0.00299574
0.00153307
0.00435009
0.00435248
0.00435587
0.00436025
0.00436567
0.0043722
0.00437991
0.00438889
0.00439923
0.00441119
0.00442432
0.00443691
0.00444866
0.0044596
0.0044698
0.00447935
0.00448835
0.00449687
0.004505
0.00451282
0.00452039
0.00452781
0.00453514
0.0045425
0.00454998
0.00455772
0.00456589
0.00457471
0.00458451
0.00459577
0.00460928
0.00462633
0.00464949
0.00468351
0.00474357
0.00485468
0.00540811
0.00551843
0.00301365
0.00159507
0.00434981
0.00435227
0.00435573
0.00436019
0.00436569
0.0043723
0.00438009
0.00438916
0.00439959
0.00441165
0.0044249
0.0044376
0.00444943
0.00446042
0.00447065
0.00448021
0.00448922
0.00449774
0.00450586
0.00451367
0.00452124
0.00452864
0.00453597
0.00454332
0.00455081
0.00455855
0.00456674
0.00457559
0.00458544
0.00459678
0.00461041
0.00462766
0.00465116
0.00468578
0.00474724
0.00486172
0.00544791
0.00551316
0.00302613
0.00165261
0.0043495
0.00435204
0.00435558
0.00436013
0.00436572
0.00437242
0.0043803
0.00438947
0.0044
0.00441217
0.00442556
0.00443837
0.00445028
0.00446132
0.00447158
0.00448117
0.00449017
0.00449869
0.00450681
0.0045146
0.00452216
0.00452956
0.00453688
0.00454423
0.00455171
0.00455947
0.00456767
0.00457656
0.00458647
0.0045979
0.00461167
0.00462914
0.00465301
0.00468833
0.00475135
0.00486988
0.0054904
0.00550668
0.00303361
0.00170631
0.00434918
0.0043518
0.00435544
0.00436007
0.00436576
0.00437256
0.00438054
0.00438982
0.00440046
0.00441274
0.00442628
0.00443922
0.00445122
0.00446231
0.0044726
0.0044822
0.00449122
0.00449973
0.00450784
0.00451562
0.00452317
0.00453055
0.00453787
0.00454521
0.0045527
0.00456047
0.00456869
0.00457762
0.0045876
0.00459913
0.00461305
0.00463077
0.00465507
0.00469117
0.00475595
0.00487943
0.00552749
0.00549704
0.00303637
0.00175666
0.00434884
0.00435155
0.00435529
0.00436003
0.00436582
0.00437272
0.00438082
0.0043902
0.00440097
0.00441336
0.00442707
0.00444014
0.00445224
0.00446339
0.00447372
0.00448334
0.00449235
0.00450086
0.00450896
0.00451673
0.00452426
0.00453163
0.00453893
0.00454628
0.00455377
0.00456155
0.0045698
0.00457878
0.00458882
0.00460047
0.00461456
0.00463257
0.00465734
0.00469432
0.00476108
0.00489064
0.00555948
0.00548288
0.00303451
0.00180407
0.00434848
0.0043513
0.00435515
0.00435999
0.00436589
0.00437291
0.00438112
0.00439063
0.00440152
0.00441405
0.00442794
0.00444116
0.00445335
0.00446457
0.00447493
0.00448456
0.00449357
0.00450208
0.00451016
0.00451791
0.00452543
0.00453279
0.00454009
0.00454742
0.00455492
0.00456272
0.004571
0.00458003
0.00459015
0.00460192
0.00461622
0.00463453
0.00465984
0.00469782
0.0047668
0.00490374
0.00558777
0.00546107
0.00302782
0.00184887
0.00434811
0.00435104
0.00435501
0.00435997
0.00436599
0.00437313
0.00438147
0.00439111
0.00440214
0.0044148
0.00442889
0.00444226
0.00445456
0.00446584
0.00447624
0.00448588
0.00449489
0.00450338
0.00451145
0.00451919
0.00452669
0.00453403
0.00454132
0.00454865
0.00455615
0.00456397
0.00457229
0.00458137
0.00459159
0.0046035
0.00461801
0.00463667
0.00466258
0.00470168
0.00477315
0.00491896
0.00561345
0.00542651
0.00301568
0.00189144
0.00434775
0.00435078
0.00435487
0.00435997
0.00436611
0.00437338
0.00438185
0.00439163
0.00440281
0.00441562
0.00442992
0.00444346
0.00445587
0.00446721
0.00447764
0.0044873
0.00449631
0.00450479
0.00451284
0.00452055
0.00452803
0.00453536
0.00454264
0.00454997
0.00455748
0.00456532
0.00457368
0.00458282
0.00459314
0.00460521
0.00461996
0.00463901
0.00466558
0.00470596
0.00478025
0.00493655
0.0056372
0.00537986
0.00299767
0.00192947
0.0043475
0.00435055
0.00435475
0.00435998
0.00436627
0.00437367
0.00438229
0.00439221
0.00440355
0.00441652
0.00443104
0.00444475
0.00445728
0.00446869
0.00447915
0.00448882
0.00449782
0.00450628
0.00451431
0.00452201
0.00452947
0.00453678
0.00454405
0.00455137
0.00455889
0.00456675
0.00457516
0.00458438
0.00459481
0.00460705
0.00462207
0.00464156
0.00466888
0.00471068
0.00478817
0.00495681
0.00565937
0.00532262
0.00297339
0.00195392
0.00434719
0.00435034
0.00435466
0.00436003
0.00436645
0.00437401
0.00438277
0.00439285
0.00440435
0.00441749
0.00443226
0.00444615
0.0044588
0.00447027
0.00448077
0.00449044
0.00449943
0.00450788
0.00451588
0.00452355
0.00453099
0.00453828
0.00454554
0.00455287
0.0045604
0.00456828
0.00457674
0.00458604
0.0045966
0.00460903
0.00462435
0.00464432
0.00467248
0.0047159
0.00479705
0.0049801
0.00568006
0.00525607
0.0029427
0.00196735
0.00434661
0.0043502
0.00435461
0.0043601
0.00436668
0.00437438
0.0043833
0.00439355
0.00440523
0.00441854
0.00443357
0.00444766
0.00446043
0.00447197
0.00448249
0.00449216
0.00450115
0.00450957
0.00451755
0.00452519
0.0045326
0.00453988
0.00454712
0.00455445
0.00456199
0.00456991
0.00457843
0.00458782
0.00459851
0.00461116
0.00462682
0.00464733
0.00467643
0.00472168
0.00480705
0.00500687
0.00569916
0.0051811
0.00290562
0.00197309
0.00434606
0.00435
0.00435459
0.00436021
0.00436694
0.00437481
0.00438389
0.00439431
0.00440618
0.00441968
0.00443499
0.00444929
0.00446218
0.00447378
0.00448433
0.004494
0.00450296
0.00451136
0.00451931
0.00452693
0.00453431
0.00454157
0.0045488
0.00455613
0.00456369
0.00457164
0.00458022
0.00458971
0.00460057
0.00461345
0.00462948
0.00465061
0.00468076
0.00472809
0.00481836
0.00503767
0.00571639
0.00509833
0.00286277
0.00197345
0.00434562
0.00434979
0.00435457
0.00436035
0.00436725
0.00437529
0.00438455
0.00439515
0.00440722
0.00442091
0.00443653
0.00445104
0.00446405
0.00447572
0.00448628
0.00449595
0.00450489
0.00451326
0.00452118
0.00452876
0.00453612
0.00454335
0.00455057
0.0045579
0.00456548
0.00457348
0.00458213
0.00459174
0.00460276
0.00461592
0.00463236
0.00465417
0.00468551
0.0047352
0.00483122
0.00507315
0.00573125
0.00500798
0.00281209
0.00197309
0.00434526
0.0043496
0.00435456
0.00436051
0.00436759
0.00437582
0.00438527
0.00439606
0.00440834
0.00442224
0.00443818
0.00445292
0.00446605
0.00447778
0.00448836
0.00449801
0.00450693
0.00451526
0.00452314
0.00453069
0.00453802
0.00454523
0.00455244
0.00455978
0.00456738
0.00457542
0.00458415
0.00459389
0.00460511
0.00461857
0.00463548
0.00465804
0.00469073
0.00474313
0.00484593
0.00511416
0.00574307
0.00490992
0.00275243
0.00197422
0.00434495
0.00434945
0.00435458
0.00436071
0.00436797
0.00437641
0.00438606
0.00439706
0.00440955
0.00442367
0.00443996
0.00445493
0.00446819
0.00447997
0.00449055
0.00450019
0.00450908
0.00451737
0.00452521
0.00453272
0.00454002
0.00454721
0.00455441
0.00456175
0.00456938
0.00457748
0.0045863
0.00459618
0.00460763
0.00462141
0.00463885
0.00466227
0.00469648
0.004752
0.00486288
0.00516171
0.00575087
0.00480366
0.00268371
0.00197653
0.00434465
0.00434935
0.00435467
0.00436095
0.0043684
0.00437705
0.00438693
0.00439814
0.00441086
0.00442522
0.00444186
0.00445709
0.00447047
0.00448229
0.00449288
0.00450249
0.00451134
0.00451959
0.00452738
0.00453485
0.00454212
0.00454928
0.00455648
0.00456383
0.00457149
0.00457966
0.00458858
0.00459863
0.00461031
0.00462447
0.0046425
0.00466689
0.00470284
0.00476195
0.00488258
0.00521708
0.00575354
0.00468688
0.0026104
0.00197956
0.00434437
0.0043493
0.00435481
0.00436125
0.00436888
0.00437776
0.00438787
0.00439932
0.00441228
0.00442688
0.00444388
0.00445939
0.0044729
0.00448476
0.00449534
0.00450492
0.00451372
0.00452192
0.00452967
0.00453709
0.00454432
0.00455147
0.00455865
0.00456602
0.00457372
0.00458196
0.004591
0.00460123
0.00461319
0.00462777
0.00464646
0.00467195
0.00470989
0.0047732
0.00490566
0.00528193
0.00574972
0.00456007
0.00253373
0.00198297
0.00434411
0.00434928
0.00435501
0.00436162
0.00436943
0.00437853
0.00438889
0.00440059
0.00441381
0.00442867
0.00444601
0.00446184
0.00447549
0.00448738
0.00449794
0.00450747
0.00451622
0.00452437
0.00453206
0.00453944
0.00454663
0.00455376
0.00456094
0.00456832
0.00457607
0.00458439
0.00459357
0.004604
0.00461627
0.00463133
0.00465076
0.00467751
0.00471773
0.00478599
0.00493289
0.00534685
0.00573653
0.00442526
0.00245439
0.00198655
0.00434386
0.00434929
0.00435528
0.00436207
0.00437005
0.00437937
0.00439
0.00440197
0.00441546
0.0044306
0.00444829
0.00446445
0.00447824
0.00449015
0.00450067
0.00451016
0.00451885
0.00452693
0.00453457
0.0045419
0.00454905
0.00455616
0.00456334
0.00457074
0.00457855
0.00458697
0.0045963
0.00460696
0.00461958
0.00463517
0.00465545
0.00468362
0.00472649
0.00480063
0.0049651
0.00541146
0.00570993
0.00428323
0.00237314
0.00199004
0.00434366
0.00434935
0.0043556
0.0043626
0.00437076
0.00438031
0.0043912
0.00440346
0.00441724
0.00443267
0.00445072
0.00446722
0.00448115
0.00449307
0.00450356
0.00451298
0.0045216
0.00452961
0.00453719
0.00454447
0.00455159
0.00455867
0.00456585
0.00457329
0.00458116
0.00458969
0.00459919
0.00461011
0.00462313
0.00463932
0.00466056
0.00469038
0.00473634
0.00481757
0.00500342
0.00547766
0.00566488
0.00413413
0.00229087
0.00199319
0.0043435
0.00434944
0.00435598
0.00436321
0.00437156
0.00438134
0.00439251
0.00440506
0.00441915
0.0044349
0.00445331
0.00447018
0.00448424
0.00449616
0.00450659
0.00451594
0.00452448
0.00453242
0.00453993
0.00454716
0.00455424
0.0045613
0.00456849
0.00457597
0.00458391
0.00459257
0.00460226
0.00461348
0.00462694
0.00464383
0.00466617
0.00469788
0.00474749
0.00483722
0.00505028
0.00554318
0.00559858
0.00397795
0.00220852
0.00199566
0.0043434
0.00434959
0.00435643
0.0043639
0.00437246
0.00438247
0.00439393
0.00440679
0.00442121
0.00443729
0.00445609
0.00447332
0.00448751
0.00449941
0.00450977
0.00451903
0.00452749
0.00453535
0.0045428
0.00454997
0.00455701
0.00456406
0.00457126
0.00457878
0.00458681
0.00459561
0.00460554
0.00461709
0.00463106
0.00464873
0.00467234
0.00470627
0.00476008
0.00486013
0.00510761
0.00560505
0.0055091
0.00381487
0.00212698
0.001997
0.00434337
0.00434981
0.00435695
0.00436469
0.00437347
0.00438372
0.00439547
0.00440866
0.00442342
0.00443986
0.00445906
0.00447667
0.00449097
0.00450284
0.00451311
0.00452228
0.00453064
0.00453842
0.00454578
0.0045529
0.00455991
0.00456695
0.00457417
0.00458174
0.00458988
0.00459885
0.00460902
0.00462096
0.00463551
0.00465408
0.00467916
0.0047156
0.00477422
0.00488781
0.0051763
0.00565899
0.00538964
0.00364528
0.00204761
0.00199669
0.00434341
0.00435009
0.00435754
0.00436556
0.00437459
0.00438509
0.00439715
0.00441068
0.0044258
0.00444262
0.00446224
0.00448024
0.00449462
0.00450644
0.00451661
0.00452567
0.00453392
0.00454161
0.0045489
0.00455596
0.00456293
0.00456997
0.00457721
0.00458486
0.00459311
0.00460228
0.00461275
0.00462512
0.00464034
0.00465993
0.00468669
0.00472602
0.00479028
0.00492227
0.00525608
0.00569949
0.00524033
0.00346968
0.00196759
0.00199389
0.00434354
0.00435046
0.00435822
0.00436654
0.00437582
0.0043866
0.00439897
0.00441285
0.00442836
0.00444558
0.00446564
0.00448405
0.00449848
0.00451022
0.00452027
0.00452921
0.00453735
0.00454494
0.00455215
0.00455915
0.0045661
0.00457313
0.00458041
0.00458814
0.00459654
0.00460592
0.00461673
0.00462961
0.00464558
0.00466636
0.00469505
0.00473765
0.00480894
0.00496594
0.00534477
0.00572008
0.00506399
0.00328876
0.00188619
0.00198761
0.00434376
0.00435092
0.004359
0.00436762
0.00437718
0.00438825
0.00440094
0.0044152
0.0044311
0.00444876
0.00446928
0.00448811
0.00450256
0.00451419
0.0045241
0.0045329
0.00454092
0.00454841
0.00455554
0.00456249
0.0045694
0.00457644
0.00458377
0.0045916
0.00460016
0.00460981
0.004621
0.00463445
0.0046513
0.00467344
0.00470436
0.00475068
0.00483147
0.00502128
0.00543753
0.0057138
0.00486482
0.00310355
0.00180435
0.00197697
0.00434408
0.00435148
0.00435987
0.00436881
0.00437868
0.00439005
0.00440309
0.00441773
0.00443406
0.00445217
0.00447319
0.00449244
0.00450686
0.00451834
0.0045281
0.00453675
0.00454464
0.00455202
0.00455907
0.00456596
0.00457285
0.00457991
0.0045873
0.00459525
0.00460401
0.00461395
0.00462559
0.00463971
0.00465756
0.0046813
0.00471474
0.00476544
0.00485987
0.00508981
0.00552617
0.00567373
0.00464707
0.00291544
0.00172326
0.00196136
0.0043445
0.00435215
0.00436087
0.00437013
0.00438031
0.00439202
0.00440542
0.00442047
0.00443723
0.00445583
0.00447736
0.00449705
0.00451137
0.00452269
0.00453226
0.00454076
0.00454852
0.00455578
0.00456275
0.00456959
0.00457647
0.00458355
0.00459102
0.00459911
0.00460811
0.00461839
0.00463054
0.00464542
0.00466445
0.00469003
0.00472631
0.00478266
0.00489683
0.00517116
0.00560036
0.00559339
0.00441381
0.00272616
0.00164403
0.0019406
0.00434505
0.00435295
0.00436199
0.00437158
0.0043821
0.00439417
0.00440796
0.00442343
0.00444066
0.00445976
0.00448185
0.00450198
0.00451612
0.00452723
0.00453661
0.00454493
0.00455255
0.0045597
0.00456658
0.00457338
0.00458025
0.00458737
0.00459495
0.00460321
0.00461247
0.00462315
0.0046359
0.00465167
0.00467208
0.00469977
0.00473923
0.00480369
0.00494552
0.00526123
0.00564542
0.00546815
0.00416702
0.00253775
0.00156769
0.0019153
0.00434569
0.00435385
0.00436322
0.00437315
0.00438402
0.00439647
0.00441066
0.00442657
0.00444429
0.00446394
0.0044866
0.00450718
0.00452108
0.00453195
0.00454112
0.00454926
0.00455673
0.00456377
0.00457057
0.00457733
0.00458421
0.00459139
0.00459909
0.00460755
0.00461713
0.00462829
0.00464173
0.00465856
0.00468057
0.00471061
0.00475409
0.00483124
0.0050077
0.00535023
0.00565467
0.00529147
0.00390774
0.00235236
0.00149515
0.00188781
0.00436959
0.00436146
0.0043547
0.0043494
0.00434565
0.00434368
0.00434393
0.00436961
0.00436151
0.00435471
0.00434928
0.00434522
0.00434256
0.00434157
0.00436963
0.00436153
0.00435468
0.00434907
0.00434467
0.00434149
0.00433956
0.00436964
0.00436154
0.00435461
0.00434885
0.00434416
0.00434056
0.00433793
0.00436963
0.00436151
0.00435452
0.00434862
0.0043437
0.00433975
0.00433661
0.00436962
0.00436146
0.0043544
0.00434837
0.00434325
0.00433903
0.00433551
0.0043696
0.00436139
0.00435425
0.0043481
0.00434282
0.00433838
0.00433459
0.00436957
0.00436129
0.00435407
0.00434782
0.00434241
0.00433779
0.00433379
0.00436954
0.00436119
0.00435389
0.00434754
0.00434201
0.00433725
0.00433309
0.00436951
0.00436108
0.00435371
0.00434728
0.00434165
0.00433677
0.00433249
0.00436947
0.00436099
0.00435355
0.00434703
0.00434133
0.00433635
0.00433198
0.00436944
0.0043609
0.0043534
0.00434683
0.00434106
0.00433601
0.00433157
0.00436942
0.00436083
0.00435328
0.00434666
0.00434084
0.00433574
0.00433125
0.0043694
0.00436077
0.00435319
0.00434653
0.00434067
0.00433553
0.004331
0.00436939
0.00436073
0.00435312
0.00434643
0.00434054
0.00433538
0.00433082
0.00436937
0.00436069
0.00435306
0.00434635
0.00434045
0.00433527
0.0043307
0.00436937
0.00436067
0.00435303
0.0043463
0.00434039
0.00433519
0.00433061
0.00436936
0.00436066
0.004353
0.00434627
0.00434035
0.00433514
0.00433055
0.00436936
0.00436064
0.00435298
0.00434624
0.00434032
0.0043351
0.00433051
0.00436936
0.00436064
0.00435297
0.00434623
0.0043403
0.00433508
0.00433048
0.00436935
0.00436063
0.00435296
0.00434622
0.00434028
0.00433506
0.00433046
0.00436935
0.00436063
0.00435296
0.00434621
0.00434027
0.00433505
0.00433045
0.00436935
0.00436063
0.00435295
0.00434621
0.00434027
0.00433504
0.00433044
0.00436935
0.00436063
0.00435295
0.0043462
0.00434026
0.00433504
0.00433044
0.00436935
0.00436062
0.00435295
0.0043462
0.00434026
0.00433503
0.00433043
0.00436935
0.00436062
0.00435295
0.0043462
0.00434026
0.00433503
0.00433043
0.00436935
0.00436062
0.00435295
0.0043462
0.00434026
0.00433503
0.00433043
0.00436935
0.00436062
0.00435295
0.0043462
0.00434026
0.00433503
0.00433043
0.00436935
0.00436062
0.00435295
0.0043462
0.00434026
0.00433503
0.00433043
0.00436935
0.00436062
0.00435295
0.0043462
0.00434026
0.00433503
0.00433043
0.00436935
0.00436062
0.00435295
0.0043462
0.00434026
0.00433503
0.00433043
0.00436935
0.00436062
0.00435295
0.0043462
0.00434026
0.00433503
0.00433043
0.00436935
0.00436062
0.00435295
0.0043462
0.00434026
0.00433503
0.00433043
0.00436935
0.00436062
0.00435295
0.0043462
0.00434026
0.00433503
0.00433043
0.00436935
0.00436062
0.00435295
0.0043462
0.00434026
0.00433503
0.00433043
0.00436935
0.00436062
0.00435295
0.0043462
0.00434026
0.00433503
0.00433043
0.00436935
0.00436062
0.00435295
0.0043462
0.00434026
0.00433503
0.00433043
0.00436935
0.00436062
0.00435295
0.0043462
0.00434026
0.00433503
0.00433043
0.00436935
0.00436062
0.00435295
0.0043462
0.00434026
0.00433503
0.00433043
0.00436935
0.00436062
0.00435295
0.0043462
0.00434026
0.00433503
0.00433043
0.00434321
0.00434271
0.00434222
0.00434171
0.00434119
0.00434065
0.00434013
0.00433963
0.00433915
0.00433872
0.00433833
0.004338
0.00433774
0.00433754
0.00433742
0.00433738
0.00433744
0.00433759
0.00433784
0.00433822
0.00434047
0.00433993
0.00433932
0.00433861
0.00433785
0.00433712
0.00433642
0.00433575
0.00433512
0.00433452
0.00433397
0.00433346
0.004333
0.00433259
0.00433225
0.00433197
0.00433176
0.00433164
0.00433161
0.00433169
0.0043381
0.00433747
0.00433677
0.00433598
0.00433517
0.00433438
0.00433361
0.00433284
0.00433208
0.00433133
0.0043306
0.00432989
0.0043292
0.00432855
0.00432794
0.00432737
0.00432686
0.00432642
0.00432604
0.00432576
0.00433617
0.00433545
0.00433465
0.00433377
0.00433285
0.00433194
0.00433102
0.0043301
0.00432917
0.00432825
0.00432734
0.00432644
0.00432556
0.0043247
0.00432387
0.00432307
0.00432231
0.0043216
0.00432094
0.00432034
0.00433462
0.00433381
0.00433294
0.00433199
0.00433102
0.00433004
0.00432905
0.00432805
0.00432704
0.00432604
0.00432503
0.00432403
0.00432304
0.00432206
0.00432109
0.00432014
0.00431922
0.00431833
0.00431747
0.00431666
0.00433335
0.00433248
0.00433154
0.00433055
0.00432953
0.00432849
0.00432744
0.00432637
0.0043253
0.00432421
0.00432312
0.00432203
0.00432094
0.00431985
0.00431877
0.00431771
0.00431666
0.00431562
0.00431462
0.00431364
0.00433229
0.00433137
0.00433039
0.00432936
0.0043283
0.00432722
0.00432612
0.00432501
0.00432388
0.00432274
0.00432159
0.00432043
0.00431928
0.00431812
0.00431696
0.00431581
0.00431467
0.00431353
0.00431242
0.00431133
0.00433139
0.00433043
0.00432941
0.00432836
0.00432727
0.00432616
0.00432503
0.00432388
0.00432271
0.00432153
0.00432034
0.00431914
0.00431793
0.00431672
0.0043155
0.00431429
0.00431308
0.00431188
0.00431068
0.00430951
0.00433062
0.00432962
0.00432859
0.00432751
0.0043264
0.00432527
0.00432412
0.00432294
0.00432175
0.00432054
0.00431932
0.00431808
0.00431683
0.00431558
0.00431432
0.00431306
0.0043118
0.00431055
0.0043093
0.00430806
0.00432996
0.00432895
0.0043279
0.00432681
0.00432568
0.00432454
0.00432337
0.00432217
0.00432096
0.00431973
0.00431848
0.00431722
0.00431595
0.00431467
0.00431338
0.00431209
0.0043108
0.0043095
0.00430821
0.00430693
0.00432941
0.00432839
0.00432732
0.00432623
0.0043251
0.00432394
0.00432276
0.00432155
0.00432033
0.00431908
0.00431782
0.00431654
0.00431525
0.00431395
0.00431264
0.00431132
0.00431
0.00430868
0.00430736
0.00430605
0.00432897
0.00432794
0.00432687
0.00432576
0.00432463
0.00432346
0.00432227
0.00432106
0.00431982
0.00431857
0.0043173
0.00431601
0.0043147
0.00431339
0.00431206
0.00431073
0.00430939
0.00430805
0.00430671
0.00430537
0.00432863
0.00432759
0.00432651
0.0043254
0.00432426
0.00432309
0.0043219
0.00432068
0.00431944
0.00431818
0.0043169
0.0043156
0.00431429
0.00431296
0.00431163
0.00431028
0.00430893
0.00430758
0.00430622
0.00430487
0.00432836
0.00432732
0.00432624
0.00432513
0.00432399
0.00432282
0.00432162
0.00432039
0.00431915
0.00431788
0.0043166
0.00431529
0.00431397
0.00431264
0.0043113
0.00430995
0.00430859
0.00430723
0.00430586
0.0043045
0.00432817
0.00432713
0.00432604
0.00432493
0.00432378
0.00432261
0.00432141
0.00432018
0.00431893
0.00431766
0.00431638
0.00431507
0.00431375
0.00431241
0.00431106
0.00430971
0.00430834
0.00430698
0.0043056
0.00430423
0.00432804
0.00432699
0.0043259
0.00432479
0.00432364
0.00432246
0.00432126
0.00432003
0.00431878
0.00431751
0.00431622
0.00431491
0.00431358
0.00431224
0.00431089
0.00430953
0.00430817
0.0043068
0.00430542
0.00430404
0.00432794
0.00432689
0.0043258
0.00432468
0.00432353
0.00432235
0.00432115
0.00431992
0.00431867
0.00431739
0.0043161
0.00431479
0.00431346
0.00431212
0.00431077
0.00430941
0.00430804
0.00430667
0.00430529
0.00430391
0.00432788
0.00432682
0.00432573
0.00432461
0.00432346
0.00432228
0.00432107
0.00431984
0.00431859
0.00431731
0.00431602
0.00431471
0.00431338
0.00431204
0.00431069
0.00430933
0.00430796
0.00430658
0.0043052
0.00430382
0.00432783
0.00432677
0.00432568
0.00432456
0.0043234
0.00432222
0.00432101
0.00431978
0.00431853
0.00431725
0.00431596
0.00431465
0.00431332
0.00431198
0.00431063
0.00430926
0.00430789
0.00430652
0.00430514
0.00430376
0.0043278
0.00432674
0.00432564
0.00432452
0.00432336
0.00432218
0.00432097
0.00431974
0.00431848
0.00431721
0.00431591
0.0043146
0.00431327
0.00431193
0.00431058
0.00430922
0.00430785
0.00430648
0.0043051
0.00430372
0.00432778
0.00432672
0.00432562
0.00432449
0.00432333
0.00432215
0.00432094
0.0043197
0.00431845
0.00431717
0.00431588
0.00431456
0.00431324
0.0043119
0.00431055
0.00430919
0.00430782
0.00430645
0.00430507
0.00430369
0.00432777
0.0043267
0.00432559
0.00432446
0.0043233
0.00432212
0.00432091
0.00431967
0.00431842
0.00431714
0.00431585
0.00431453
0.00431321
0.00431187
0.00431052
0.00430916
0.00430779
0.00430642
0.00430505
0.00430367
0.00432776
0.00432668
0.00432558
0.00432444
0.00432328
0.00432209
0.00432088
0.00431964
0.00431839
0.00431711
0.00431582
0.00431451
0.00431318
0.00431185
0.0043105
0.00430914
0.00430778
0.00430641
0.00430503
0.00430366
0.00432775
0.00432667
0.00432556
0.00432442
0.00432326
0.00432207
0.00432086
0.00431962
0.00431836
0.00431709
0.00431579
0.00431448
0.00431316
0.00431182
0.00431048
0.00430912
0.00430776
0.00430639
0.00430502
0.00430365
0.00432774
0.00432666
0.00432555
0.0043244
0.00432324
0.00432205
0.00432083
0.00431959
0.00431834
0.00431706
0.00431577
0.00431446
0.00431314
0.0043118
0.00431046
0.0043091
0.00430774
0.00430638
0.00430501
0.00430364
0.00432774
0.00432665
0.00432553
0.00432439
0.00432322
0.00432202
0.0043208
0.00431957
0.00431831
0.00431703
0.00431574
0.00431443
0.00431311
0.00431178
0.00431044
0.00430909
0.00430773
0.00430637
0.004305
0.00430363
0.00432773
0.00432664
0.00432551
0.00432437
0.00432319
0.004322
0.00432078
0.00431954
0.00431828
0.004317
0.00431571
0.00431441
0.00431309
0.00431176
0.00431042
0.00430907
0.00430772
0.00430636
0.00430499
0.00430363
0.00432773
0.00432663
0.0043255
0.00432434
0.00432317
0.00432197
0.00432075
0.00431951
0.00431825
0.00431697
0.00431568
0.00431438
0.00431306
0.00431173
0.0043104
0.00430905
0.0043077
0.00430634
0.00430499
0.00430363
0.00432772
0.00432661
0.00432548
0.00432432
0.00432314
0.00432194
0.00432072
0.00431947
0.00431821
0.00431694
0.00431565
0.00431435
0.00431303
0.00431171
0.00431037
0.00430903
0.00430768
0.00430633
0.00430498
0.00430362
0.00432772
0.0043266
0.00432546
0.0043243
0.00432311
0.0043219
0.00432068
0.00431944
0.00431818
0.0043169
0.00431562
0.00431431
0.004313
0.00431168
0.00431035
0.00430901
0.00430767
0.00430632
0.00430497
0.00430362
0.00432771
0.00432659
0.00432544
0.00432427
0.00432308
0.00432187
0.00432064
0.0043194
0.00431814
0.00431686
0.00431558
0.00431428
0.00431297
0.00431165
0.00431032
0.00430899
0.00430765
0.00430631
0.00430496
0.00430362
0.00432771
0.00432657
0.00432541
0.00432424
0.00432304
0.00432183
0.0043206
0.00431935
0.00431809
0.00431682
0.00431553
0.00431424
0.00431293
0.00431161
0.00431029
0.00430896
0.00430763
0.00430629
0.00430495
0.00430361
0.0043277
0.00432655
0.00432539
0.00432421
0.004323
0.00432179
0.00432055
0.0043193
0.00431804
0.00431677
0.00431549
0.00431419
0.00431289
0.00431158
0.00431026
0.00430894
0.00430761
0.00430628
0.00430494
0.00430361
0.0043277
0.00432654
0.00432536
0.00432417
0.00432296
0.00432174
0.0043205
0.00431925
0.00431799
0.00431672
0.00431543