/*--------------------------------*- C++ -*----------------------------------*\
  =========                 |
  \\      /  F ield         | OpenFOAM: The Open Source CFD Toolbox
   \\    /   O peration     | Website:  https://openfoam.org
    \\  /    A nd           | Version:  13
     \\/     M anipulation  |
\*---------------------------------------------------------------------------*/
FoamFile
{
    format      ascii;
    class       volScalarField;
    location    "190";
    object      nut;
}
// * * * * * * * * * * * * * * * * * * * * * * * * * * * * * * * * * * * * * //

dimensions      [0 2 -1 0 0 0 0];

internalField   nonuniform List<scalar> 
26820
(
0.000179984
0.000179954
0.000179932
0.000179921
0.000179925
0.00017995
0.000159611
0.000179984
0.000179954
0.000179932
0.000179921
0.000179925
0.000179949
0.000160037
0.000179984
0.000179954
0.000179932
0.000179921
0.000179925
0.000179949
0.000160069
0.000179984
0.000179954
0.000179932
0.000179921
0.000179925
0.00017995
0.000160084
0.000179984
0.000179954
0.000179932
0.000179921
0.000179925
0.00017995
0.000160316
0.000179984
0.000179954
0.000179932
0.000179922
0.000179925
0.000179951
0.000160529
0.000179984
0.000179954
0.000179932
0.000179922
0.000179926
0.000179951
0.000160765
0.000179984
0.000179955
0.000179933
0.000179922
0.000179926
0.000179952
0.000161012
0.000179984
0.000179955
0.000179933
0.000179923
0.000179926
0.000179953
0.000161256
0.000179984
0.000179955
0.000179933
0.000179923
0.000179927
0.000179954
0.000161489
0.000179984
0.000179955
0.000179933
0.000179923
0.000179927
0.000179955
0.000161706
0.000179984
0.000179955
0.000179934
0.000179924
0.000179927
0.000179956
0.000161909
0.000179984
0.000179956
0.000179934
0.000179924
0.000179928
0.000179957
0.000162114
0.000179985
0.000179956
0.000179934
0.000179924
0.000179928
0.000179958
0.000162352
0.000179985
0.000179956
0.000179934
0.000179925
0.000179928
0.000179959
0.000162651
0.000179985
0.000179956
0.000179934
0.000179925
0.000179928
0.000179961
0.000163123
0.000179985
0.000179956
0.000179935
0.000179925
0.000179928
0.000179963
0.00016429
0.000179985
0.000179956
0.000179935
0.000179926
0.00017993
0.000179965
0.000165664
0.000179985
0.000179957
0.000179936
0.000179928
0.000179934
0.000179972
0.00015988
0.000179985
0.000179957
0.000179935
0.000179926
0.000179932
0.000179971
0.00016354
0.000130704
0.000105115
8.49452e-05
6.90027e-05
5.62503e-05
4.59427e-05
3.75718e-05
3.07576e-05
2.51988e-05
2.06571e-05
1.69387e-05
1.38873e-05
1.13821e-05
9.32539e-06
7.63729e-06
6.25227e-06
5.11642e-06
4.18538e-06
3.42263e-06
2.79811e-06
2.28707e-06
1.86914e-06
1.52756e-06
1.24856e-06
1.0208e-06
8.34994e-07
6.83491e-07
5.60029e-07
4.59473e-07
3.77619e-07
3.11034e-07
2.56923e-07
2.13033e-07
1.7757e-07
1.49307e-07
1.27319e-07
1.16756e-07
1.04428e-07
8.03789e-09
2.52789e-10
0.000131062
0.00010532
8.50726e-05
6.90896e-05
5.63106e-05
4.59854e-05
3.76029e-05
3.07809e-05
2.52167e-05
2.06712e-05
1.69501e-05
1.38969e-05
1.13903e-05
9.3325e-06
7.64359e-06
6.25791e-06
5.12151e-06
4.19e-06
3.42683e-06
2.80193e-06
2.29054e-06
1.87229e-06
1.53041e-06
1.25112e-06
1.0231e-06
8.3705e-07
6.85323e-07
5.61657e-07
4.60916e-07
3.78895e-07
3.12161e-07
2.57916e-07
2.13903e-07
1.78322e-07
1.49933e-07
1.27786e-07
1.16951e-07
1.04292e-07
8.16861e-09
2.86056e-10
0.000131188
0.000105376
8.51053e-05
6.91114e-05
5.63222e-05
4.59908e-05
3.76056e-05
3.07827e-05
2.52182e-05
2.06728e-05
1.69519e-05
1.38988e-05
1.13924e-05
9.33468e-06
7.64582e-06
6.26013e-06
5.12369e-06
4.19211e-06
3.42885e-06
2.80385e-06
2.29234e-06
1.87396e-06
1.53195e-06
1.25254e-06
1.0244e-06
8.38236e-07
6.86401e-07
5.62634e-07
4.618e-07
3.79694e-07
3.12881e-07
2.58562e-07
2.14478e-07
1.78822e-07
1.50343e-07
1.28074e-07
1.17049e-07
1.04235e-07
8.37824e-09
3.30491e-10
0.000131305
0.000105435
8.51558e-05
6.9156e-05
5.63544e-05
4.60134e-05
3.76228e-05
3.07964e-05
2.52297e-05
2.06826e-05
1.69605e-05
1.39065e-05
1.13992e-05
9.3408e-06
7.65126e-06
6.26498e-06
5.12799e-06
4.19592e-06
3.43222e-06
2.80682e-06
2.29496e-06
1.87626e-06
1.53397e-06
1.25431e-06
1.02595e-06
8.39586e-07
6.87579e-07
5.63661e-07
4.62695e-07
3.80475e-07
3.13563e-07
2.59156e-07
2.14991e-07
1.79258e-07
1.50698e-07
1.28343e-07
1.17265e-07
1.04389e-07
8.59043e-09
3.75343e-10
0.000131583
0.00010559
8.52761e-05
6.92567e-05
5.64309e-05
4.60707e-05
3.76675e-05
3.08324e-05
2.52591e-05
2.0707e-05
1.69811e-05
1.39241e-05
1.14143e-05
9.35385e-06
7.66257e-06
6.2748e-06
5.13654e-06
4.20337e-06
3.43872e-06
2.81249e-06
2.2999e-06
1.88057e-06
1.53772e-06
1.25757e-06
1.02878e-06
8.42033e-07
6.89693e-07
5.65485e-07
4.64267e-07
3.81827e-07
3.14725e-07
2.60152e-07
2.15844e-07
1.79984e-07
1.51311e-07
1.28866e-07
1.17841e-07
1.04881e-07
8.77078e-09
4.16753e-10
0.000131888
0.000105754
8.54039e-05
6.93662e-05
5.65144e-05
4.61336e-05
3.77172e-05
3.0873e-05
2.52927e-05
2.07352e-05
1.70052e-05
1.39447e-05
1.14321e-05
9.36929e-06
7.676e-06
6.28651e-06
5.14677e-06
4.21231e-06
3.44654e-06
2.81933e-06
2.30587e-06
1.88578e-06
1.54226e-06
1.26151e-06
1.0322e-06
8.44993e-07
6.92249e-07
5.67687e-07
4.66158e-07
3.83449e-07
3.16111e-07
2.61336e-07
2.16852e-07
1.80843e-07
1.52046e-07
1.29512e-07
1.18637e-07
1.05548e-07
8.90942e-09
4.53948e-10
0.000132235
0.000105929
8.55387e-05
6.94829e-05
5.66036e-05
4.62009e-05
3.77709e-05
3.09173e-05
2.53298e-05
2.07667e-05
1.70322e-05
1.39681e-05
1.14525e-05
9.38698e-06
7.69144e-06
6.3e-06
5.15857e-06
4.22264e-06
3.45557e-06
2.82723e-06
2.31277e-06
1.8918e-06
1.5475e-06
1.26607e-06
1.03614e-06
8.48404e-07
6.95187e-07
5.7021e-07
4.68318e-07
3.85292e-07
3.17679e-07
2.62667e-07
2.17979e-07
1.81798e-07
1.52865e-07
1.30236e-07
1.19597e-07
1.06339e-07
9.00631e-09
4.87253e-10
0.000132632
0.000106127
8.56889e-05
6.96132e-05
5.6703e-05
4.62761e-05
3.78312e-05
3.09674e-05
2.53721e-05
2.08027e-05
1.70634e-05
1.39952e-05
1.1476e-05
9.40751e-06
7.70936e-06
6.31567e-06
5.17228e-06
4.23464e-06
3.46607e-06
2.83641e-06
2.3208e-06
1.8988e-06
1.55359e-06
1.27136e-06
1.04073e-06
8.52359e-07
6.9859e-07
5.73127e-07
4.7081e-07
3.87413e-07
3.19478e-07
2.64187e-07
2.19262e-07
1.82882e-07
1.53794e-07
1.31058e-07
1.20742e-07
1.07277e-07
9.06451e-09
5.17257e-10
0.000133075
0.000106344
8.58527e-05
6.97559e-05
5.68122e-05
4.63592e-05
3.78983e-05
3.10233e-05
2.54194e-05
2.08433e-05
1.70986e-05
1.40258e-05
1.15028e-05
9.43088e-06
7.72979e-06
6.33355e-06
5.18793e-06
4.24835e-06
3.47808e-06
2.84691e-06
2.32998e-06
1.90681e-06
1.56057e-06
1.27742e-06
1.04598e-06
8.56891e-07
7.02489e-07
5.76469e-07
4.73664e-07
3.8984e-07
3.21535e-07
2.65924e-07
2.20726e-07
1.84119e-07
1.54857e-07
1.31998e-07
1.22097e-07
1.08387e-07
9.08775e-09
5.44515e-10
0.000133558
0.000106574
8.60263e-05
6.99083e-05
5.69291e-05
4.6449e-05
3.79714e-05
3.10846e-05
2.54716e-05
2.08882e-05
1.71376e-05
1.406e-05
1.15326e-05
9.457e-06
7.75267e-06
6.35359e-06
5.2055e-06
4.26374e-06
3.49157e-06
2.85872e-06
2.34031e-06
1.91583e-06
1.56843e-06
1.28425e-06
1.0519e-06
8.62007e-07
7.06893e-07
5.80245e-07
4.76889e-07
3.92583e-07
3.23859e-07
2.67888e-07
2.22383e-07
1.85519e-07
1.56063e-07
1.33069e-07
1.23686e-07
1.09694e-07
9.07957e-09
5.69481e-10
0.000134079
0.000106813
8.62067e-05
7.0068e-05
5.7052e-05
4.65446e-05
3.80501e-05
3.11511e-05
2.55284e-05
2.09373e-05
1.71806e-05
1.40976e-05
1.15655e-05
9.48587e-06
7.77797e-06
6.37578e-06
5.22496e-06
4.28082e-06
3.50654e-06
2.87185e-06
2.35179e-06
1.92587e-06
1.57718e-06
1.29187e-06
1.0585e-06
8.67717e-07
7.11812e-07
5.84466e-07
4.80497e-07
3.95655e-07
3.26464e-07
2.7009e-07
2.24243e-07
1.87094e-07
1.57424e-07
1.34281e-07
1.25531e-07
1.1122e-07
9.04301e-09
5.92512e-10
0.000134635
0.000107054
8.63913e-05
7.02323e-05
5.71793e-05
4.66452e-05
3.8134e-05
3.12226e-05
2.55899e-05
2.09907e-05
1.72273e-05
1.41386e-05
1.16016e-05
9.51747e-06
7.80571e-06
6.40013e-06
5.24634e-06
4.29958e-06
3.52301e-06
2.88629e-06
2.36445e-06
1.93693e-06
1.58685e-06
1.30028e-06
1.06581e-06
8.74038e-07
7.17262e-07
5.89148e-07
4.84503e-07
3.99069e-07
3.29363e-07
2.72544e-07
2.26319e-07
1.88854e-07
1.58949e-07
1.35646e-07
1.27677e-07
1.13e-07
8.98068e-09
6.13889e-10
0.00013522
0.000107293
8.6577e-05
7.03981e-05
5.73086e-05
4.67496e-05
3.82227e-05
3.12988e-05
2.56559e-05
2.10482e-05
1.72779e-05
1.4183e-05
1.16406e-05
9.55181e-06
7.83588e-06
6.42664e-06
5.26963e-06
4.32005e-06
3.54099e-06
2.90207e-06
2.37828e-06
1.94905e-06
1.59743e-06
1.3095e-06
1.07383e-06
8.80986e-07
7.23261e-07
5.94308e-07
4.88923e-07
4.02841e-07
3.3257e-07
2.75263e-07
2.28625e-07
1.90812e-07
1.60652e-07
1.3718e-07
1.30062e-07
1.15063e-07
8.89483e-09
6.33835e-10
0.000135821
0.000107522
8.67602e-05
7.05613e-05
5.74378e-05
4.68569e-05
3.83154e-05
3.13795e-05
2.57263e-05
2.11098e-05
1.73322e-05
1.42309e-05
1.16828e-05
9.58887e-06
7.86848e-06
6.4553e-06
5.29483e-06
4.34221e-06
3.56047e-06
2.91918e-06
2.3933e-06
1.96221e-06
1.60895e-06
1.31956e-06
1.08258e-06
8.88579e-07
7.29826e-07
5.99963e-07
4.93775e-07
4.06987e-07
3.36102e-07
2.78263e-07
2.31173e-07
1.9298e-07
1.62544e-07
1.38904e-07
1.32517e-07
1.17416e-07
8.78721e-09
6.52538e-10
0.000136405
0.000107735
8.69368e-05
7.07166e-05
5.75642e-05
4.6966e-05
3.84117e-05
3.14643e-05
2.58008e-05
2.11755e-05
1.73903e-05
1.42822e-05
1.17279e-05
9.62865e-06
7.90348e-06
6.4861e-06
5.32194e-06
4.36607e-06
3.58146e-06
2.93764e-06
2.40953e-06
1.97645e-06
1.62142e-06
1.33046e-06
1.09207e-06
8.96833e-07
7.36974e-07
6.06129e-07
4.99075e-07
4.11525e-07
3.39975e-07
2.81559e-07
2.33979e-07
1.95374e-07
1.64641e-07
1.40835e-07
1.35067e-07
1.20088e-07
8.65906e-09
6.70149e-10
0.000136895
0.000107929
8.70996e-05
7.08586e-05
5.76863e-05
4.7076e-05
3.85111e-05
3.15529e-05
2.58794e-05
2.12451e-05
1.7452e-05
1.43368e-05
1.17761e-05
9.67111e-06
7.94088e-06
6.51904e-06
5.35096e-06
4.39162e-06
3.60397e-06
2.95746e-06
2.42696e-06
1.99176e-06
1.63485e-06
1.34221e-06
1.10234e-06
9.05767e-07
7.44724e-07
6.12828e-07
5.04843e-07
4.16474e-07
3.44207e-07
2.85167e-07
2.3706e-07
1.98007e-07
1.66956e-07
1.42997e-07
1.37769e-07
1.1982e-07
8.51077e-09
6.86789e-10
0.000137198
0.000108117
8.72365e-05
7.0974e-05
5.78003e-05
4.71863e-05
3.86132e-05
3.16452e-05
2.5962e-05
2.13185e-05
1.75174e-05
1.43947e-05
1.18273e-05
9.71626e-06
7.98067e-06
6.55411e-06
5.38187e-06
4.41887e-06
3.62799e-06
2.97863e-06
2.44561e-06
2.00817e-06
1.64926e-06
1.35485e-06
1.11339e-06
9.15402e-07
7.53098e-07
6.2008e-07
5.11101e-07
4.21853e-07
3.48817e-07
2.89107e-07
2.40432e-07
2.00896e-07
1.69508e-07
1.45411e-07
1.40679e-07
1.13177e-07
8.34167e-09
7.02603e-10
0.000137252
0.00010826
8.73523e-05
7.10732e-05
5.79053e-05
4.72947e-05
3.87175e-05
3.17412e-05
2.60485e-05
2.13958e-05
1.75864e-05
1.4456e-05
1.18815e-05
9.76407e-06
8.02284e-06
6.5913e-06
5.41467e-06
4.44782e-06
3.65354e-06
3.00117e-06
2.46548e-06
2.02568e-06
1.66467e-06
1.36838e-06
1.12524e-06
9.25757e-07
7.62116e-07
6.27908e-07
5.1787e-07
4.27686e-07
3.53828e-07
2.93399e-07
2.44115e-07
2.04061e-07
1.72315e-07
1.48106e-07
1.43848e-07
1.06387e-07
8.15177e-09
7.16729e-10
0.000137001
0.000108193
8.72524e-05
7.11291e-05
5.80098e-05
4.74044e-05
3.88239e-05
3.18404e-05
2.61388e-05
2.14768e-05
1.76589e-05
1.45205e-05
1.19386e-05
9.81453e-06
8.06737e-06
6.63059e-06
5.44936e-06
4.47845e-06
3.6806e-06
3.02508e-06
2.4866e-06
2.04431e-06
1.68109e-06
1.38282e-06
1.13792e-06
9.36856e-07
7.71804e-07
6.36335e-07
5.25175e-07
4.33996e-07
3.59262e-07
2.98066e-07
2.48132e-07
2.07522e-07
1.75401e-07
1.5111e-07
1.47331e-07
9.95425e-08
7.94126e-09
7.25815e-10
0.000136145
0.000109368
8.71836e-05
7.10789e-05
5.80854e-05
4.75146e-05
3.89341e-05
3.19433e-05
2.62328e-05
2.15615e-05
1.7735e-05
1.45883e-05
1.19987e-05
9.86761e-06
8.11424e-06
6.67198e-06
5.48592e-06
4.51077e-06
3.70918e-06
3.05036e-06
2.50895e-06
2.06407e-06
1.69853e-06
1.3982e-06
1.15144e-06
9.48721e-07
7.82184e-07
6.45387e-07
5.33042e-07
4.40808e-07
3.65145e-07
3.03132e-07
2.52505e-07
2.11302e-07
1.78791e-07
1.54461e-07
1.51184e-07
9.27232e-08
7.71116e-09
7.308e-10
0.000128895
0.000110715
8.78301e-05
7.11364e-05
5.81348e-05
4.76156e-05
3.90469e-05
3.20504e-05
2.63307e-05
2.165e-05
1.78145e-05
1.46593e-05
1.20616e-05
9.92329e-06
8.16343e-06
6.71544e-06
5.52435e-06
4.54477e-06
3.73927e-06
3.07701e-06
2.53255e-06
2.08497e-06
1.71701e-06
1.41452e-06
1.16583e-06
9.61376e-07
7.93283e-07
6.5509e-07
5.41499e-07
4.48152e-07
3.71506e-07
3.08624e-07
2.57263e-07
2.15426e-07
1.82513e-07
1.58199e-07
1.55471e-07
8.59915e-08
7.46255e-09
7.32935e-10
0.00012886
0.000109902
8.85197e-05
7.14303e-05
5.82305e-05
4.77121e-05
3.91593e-05
3.21612e-05
2.64327e-05
2.17421e-05
1.78976e-05
1.47334e-05
1.21275e-05
9.98155e-06
8.21492e-06
6.76096e-06
5.56462e-06
4.58042e-06
3.77088e-06
3.10504e-06
2.55741e-06
2.10701e-06
1.73654e-06
1.43181e-06
1.18111e-06
9.74843e-07
8.05126e-07
6.65474e-07
5.50574e-07
4.56056e-07
3.78375e-07
3.14573e-07
2.62436e-07
2.19923e-07
1.86604e-07
1.62379e-07
1.60276e-07
7.9412e-08
7.20182e-09
7.33067e-10
0.000125706
0.000109397
8.91638e-05
7.18711e-05
5.84085e-05
4.78198e-05
3.9271e-05
3.22747e-05
2.65387e-05
2.1838e-05
1.79841e-05
1.48108e-05
1.21962e-05
1.00424e-05
8.26869e-06
6.80851e-06
5.60671e-06
4.61773e-06
3.80398e-06
3.13443e-06
2.58353e-06
2.13021e-06
1.75714e-06
1.45008e-06
1.19729e-06
9.89149e-07
8.17742e-07
6.76568e-07
5.60301e-07
4.64555e-07
3.85785e-07
3.21011e-07
2.68056e-07
2.24828e-07
1.91103e-07
1.67065e-07
1.65705e-07
7.2987e-08
6.89482e-09
7.32935e-10
0.000124019
0.000108648
8.94078e-05
7.23025e-05
5.86587e-05
4.79519e-05
3.93848e-05
3.23902e-05
2.66484e-05
2.19378e-05
1.80742e-05
1.48913e-05
1.22677e-05
1.01057e-05
8.3247e-06
6.85807e-06
5.65061e-06
4.65667e-06
3.83857e-06
3.16519e-06
2.61089e-06
2.15457e-06
1.77882e-06
1.46935e-06
1.2144e-06
1.00432e-06
8.31158e-07
6.88402e-07
5.70712e-07
4.73683e-07
3.93773e-07
3.27976e-07
2.74163e-07
2.30178e-07
1.96062e-07
1.72339e-07
1.71852e-07
6.67521e-08
6.53607e-09
7.33353e-10
0.000123793
0.000107804
8.91884e-05
7.26139e-05
5.89452e-05
4.81123e-05
3.95053e-05
3.25079e-05
2.67614e-05
2.20412e-05
1.81677e-05
1.4975e-05
1.2342e-05
1.01715e-05
8.38291e-06
6.9096e-06
5.69628e-06
4.69723e-06
3.87463e-06
3.1973e-06
2.63952e-06
2.18009e-06
1.80158e-06
1.48964e-06
1.23247e-06
1.02037e-06
8.45404e-07
7.0101e-07
5.81842e-07
4.83477e-07
4.02378e-07
3.35509e-07
2.808e-07
2.36018e-07
2.01541e-07
1.78338e-07
1.78838e-07
6.04678e-08
6.14899e-09
7.34212e-10
0.000124156
0.000107115
8.87086e-05
7.27777e-05
5.92283e-05
4.82964e-05
3.96362e-05
3.2629e-05
2.68775e-05
2.21483e-05
1.82647e-05
1.50618e-05
1.24191e-05
1.02398e-05
8.4433e-06
6.96307e-06
5.7437e-06
4.73936e-06
3.91214e-06
3.23075e-06
2.66939e-06
2.20678e-06
1.82543e-06
1.51095e-06
1.2515e-06
1.03734e-06
8.60507e-07
7.14424e-07
5.93729e-07
4.93978e-07
4.11644e-07
3.43653e-07
2.88016e-07
2.42403e-07
2.07604e-07
1.85234e-07
1.86617e-07
5.56365e-08
5.73394e-09
7.35336e-10
0.000124708
0.000106666
8.81733e-05
7.2815e-05
5.9479e-05
4.84949e-05
3.97791e-05
3.2755e-05
2.6997e-05
2.22589e-05
1.83651e-05
1.51517e-05
1.2499e-05
1.03104e-05
8.50582e-06
7.01844e-06
5.79283e-06
4.78306e-06
3.95109e-06
3.26553e-06
2.70049e-06
2.23463e-06
1.85038e-06
1.5333e-06
1.27151e-06
1.05525e-06
8.76498e-07
7.28678e-07
6.06411e-07
5.05227e-07
4.21618e-07
3.52459e-07
2.95866e-07
2.49398e-07
2.14336e-07
1.93213e-07
1.95241e-07
5.19655e-08
5.31424e-09
7.36606e-10
0.000125296
0.000106454
8.76976e-05
7.27643e-05
5.96824e-05
4.8697e-05
3.99335e-05
3.28871e-05
2.71201e-05
2.23729e-05
1.84687e-05
1.52447e-05
1.25816e-05
1.03835e-05
8.57042e-06
7.07565e-06
5.84363e-06
4.82827e-06
3.99143e-06
3.30162e-06
2.73283e-06
2.26364e-06
1.87644e-06
1.5567e-06
1.29253e-06
1.0741e-06
8.93404e-07
7.43806e-07
6.19928e-07
5.1727e-07
4.32349e-07
3.61981e-07
3.04409e-07
2.57083e-07
2.21851e-07
2.0188e-07
2.05194e-07
4.8704e-08
4.90932e-09
7.37933e-10
0.000125805
0.000106427
8.7328e-05
7.26673e-05
5.98372e-05
4.8894e-05
4.00971e-05
3.3026e-05
2.72476e-05
2.24906e-05
1.85758e-05
1.53407e-05
1.26668e-05
1.04588e-05
8.63705e-06
7.13467e-06
5.89605e-06
4.87496e-06
4.03315e-06
3.33898e-06
2.76636e-06
2.2938e-06
1.90358e-06
1.58116e-06
1.31455e-06
1.09394e-06
9.11252e-07
7.59842e-07
6.3432e-07
5.30153e-07
4.43892e-07
3.7228e-07
3.13713e-07
2.65548e-07
2.30247e-07
2.11232e-07
2.1748e-07
4.54775e-08
4.53063e-09
7.39232e-10
0.000126159
0.000106511
8.70742e-05
7.2562e-05
5.99513e-05
4.908e-05
4.02669e-05
3.3172e-05
2.73798e-05
2.26121e-05
1.86861e-05
1.54398e-05
1.27547e-05
1.05365e-05
8.70565e-06
7.19543e-06
5.95003e-06
4.92308e-06
4.07618e-06
3.37759e-06
2.80109e-06
2.32509e-06
1.93182e-06
1.60666e-06
1.33761e-06
1.11477e-06
9.30068e-07
7.76819e-07
6.49629e-07
5.43925e-07
4.56302e-07
3.83423e-07
3.2385e-07
2.74901e-07
2.39562e-07
2.21469e-07
2.33587e-07
4.21097e-08
4.18361e-09
7.40402e-10
0.000126336
0.000106639
8.69281e-05
7.24762e-05
6.00375e-05
4.92529e-05
4.04401e-05
3.33246e-05
2.75171e-05
2.27375e-05
1.87999e-05
1.55418e-05
1.28451e-05
1.06163e-05
8.77617e-06
7.25787e-06
6.00551e-06
4.97258e-06
4.1205e-06
3.4174e-06
2.83696e-06
2.35749e-06
1.96114e-06
1.63323e-06
1.36169e-06
1.13661e-06
9.49875e-07
7.94769e-07
6.65896e-07
5.58636e-07
4.6964e-07
3.95479e-07
3.34899e-07
2.85256e-07
2.49909e-07
2.32709e-07
2.5639e-07
3.85519e-08
3.87011e-09
7.41318e-10
0.000126352
0.000106767
8.68742e-05
7.24266e-05
6.01089e-05
4.94137e-05
4.0615e-05
3.34834e-05
2.76599e-05
2.28671e-05
1.89172e-05
1.56469e-05
1.29381e-05
1.06983e-05
8.84851e-06
7.32191e-06
6.06243e-06
5.02339e-06
4.16605e-06
3.45838e-06
2.87396e-06
2.39098e-06
1.99152e-06
1.66083e-06
1.3868e-06
1.15947e-06
9.70693e-07
8.13721e-07
6.83161e-07
5.74333e-07
4.83962e-07
4.08536e-07
3.4693e-07
2.96717e-07
2.61403e-07
2.45227e-07
2.88115e-07
3.48512e-08
3.58996e-09
7.41817e-10
0.000126235
0.000106874
8.68953e-05
7.24205e-05
6.01775e-05
4.95654e-05
4.07905e-05
3.36478e-05
2.78082e-05
2.30012e-05
1.9038e-05
1.5755e-05
1.30337e-05
1.07824e-05
8.92263e-06
7.38749e-06
6.12072e-06
5.07544e-06
4.21276e-06
3.50048e-06
2.91203e-06
2.42553e-06
2.02294e-06
1.68947e-06
1.41294e-06
1.18336e-06
9.92541e-07
8.33699e-07
7.01454e-07
5.91068e-07
4.99329e-07
4.22692e-07
3.60039e-07
3.09389e-07
2.74092e-07
2.59643e-07
2.75339e-07
3.11158e-08
3.34298e-09
7.41702e-10
0.000126017
0.00010695
8.69754e-05
7.2459e-05
6.02523e-05
4.97115e-05
4.09668e-05
3.38174e-05
2.79621e-05
2.31397e-05
1.91625e-05
1.58661e-05
1.31316e-05
1.08684e-05
8.99838e-06
7.45448e-06
6.18027e-06
5.12866e-06
4.26056e-06
3.54362e-06
2.95113e-06
2.46108e-06
2.05538e-06
1.71912e-06
1.4401e-06
1.20826e-06
1.01541e-06
8.54718e-07
7.20808e-07
6.08908e-07
5.15816e-07
4.38036e-07
3.74357e-07
3.2336e-07
2.87958e-07
2.77194e-07
2.5783e-07
2.74768e-08
3.12201e-09
7.4066e-10
0.000125735
0.000106994
8.71035e-05
7.254e-05
6.03409e-05
4.98569e-05
4.11452e-05
3.39926e-05
2.81221e-05
2.32832e-05
1.92909e-05
1.59804e-05
1.32321e-05
1.09565e-05
9.07581e-06
7.52288e-06
6.24106e-06
5.183e-06
4.30943e-06
3.58779e-06
2.99123e-06
2.49763e-06
2.08879e-06
1.74975e-06
1.46825e-06
1.23417e-06
1.03932e-06
8.76821e-07
7.41291e-07
6.27926e-07
5.33496e-07
4.54653e-07
3.90029e-07
3.3866e-07
3.02983e-07
3.00305e-07
2.33522e-07
2.40545e-08
2.92383e-09
7.38328e-10
0.000125418
0.000107009
8.72692e-05
7.2656e-05
6.04458e-05
5.00034e-05
4.13254e-05
3.4172e-05
2.82871e-05
2.34307e-05
1.94224e-05
1.60972e-05
1.33344e-05
1.1046e-05
9.15438e-06
7.59226e-06
6.30272e-06
5.23817e-06
4.35908e-06
3.63274e-06
3.03212e-06
2.53498e-06
2.12305e-06
1.78126e-06
1.49733e-06
1.26109e-06
1.06429e-06
9.00034e-07
7.62911e-07
6.48134e-07
5.5242e-07
4.72641e-07
4.07195e-07
3.55193e-07
3.19267e-07
3.33906e-07
2.02665e-07
2.09376e-08
2.74797e-09
7.34377e-10
0.000125125
0.00010701
8.74836e-05
7.28092e-05
6.05792e-05
5.0161e-05
4.15154e-05
3.4361e-05
2.84613e-05
2.35859e-05
1.95601e-05
1.62189e-05
1.34405e-05
1.11384e-05
9.23529e-06
7.66354e-06
6.36597e-06
5.2947e-06
4.40997e-06
3.67882e-06
3.07409e-06
2.5734e-06
2.15839e-06
1.81389e-06
1.52755e-06
1.28915e-06
1.09041e-06
9.24413e-07
7.85718e-07
6.69598e-07
5.72712e-07
4.92175e-07
4.25969e-07
3.72691e-07
3.37299e-07
3.89225e-07
1.68213e-07
1.81767e-08
2.59439e-09
7.28575e-10
0.000124825
0.000106966
8.77097e-05
7.29662e-05
6.07176e-05
5.03117e-05
4.16998e-05
3.45456e-05
2.86329e-05
2.37386e-05
1.96955e-05
1.63383e-05
1.35443e-05
1.12289e-05
9.31445e-06
7.73336e-06
6.42806e-06
5.35038e-06
4.46029e-06
3.72462e-06
3.11604e-06
2.61202e-06
2.19407e-06
1.847e-06
1.55834e-06
1.31788e-06
1.11729e-06
9.49649e-07
8.09502e-07
6.92187e-07
5.94341e-07
5.1331e-07
4.46219e-07
3.90683e-07
3.58437e-07
4.97786e-07
1.34387e-07
1.57873e-08
2.46299e-09
7.20866e-10
0.000124783
0.000106968
8.80997e-05
7.31967e-05
6.09506e-05
5.05205e-05
4.19374e-05
3.47716e-05
2.88401e-05
2.392e-05
1.98544e-05
1.64767e-05
1.36632e-05
1.13312e-05
9.40324e-06
7.81099e-06
6.49655e-06
5.41133e-06
4.51498e-06
3.77409e-06
3.16109e-06
2.65327e-06
2.23205e-06
1.88212e-06
1.59096e-06
1.34831e-06
1.1458e-06
9.7651e-07
8.34929e-07
7.16492e-07
6.17907e-07
5.36595e-07
4.67943e-07
4.08929e-07
3.86022e-07
7.99512e-07
1.04634e-07
1.37606e-08
2.35361e-09
7.11466e-10
0.000124859
0.000106862
8.83379e-05
7.33636e-05
6.11149e-05
5.06852e-05
4.21304e-05
3.49623e-05
2.90188e-05
2.40797e-05
1.99967e-05
1.66023e-05
1.37721e-05
1.14259e-05
9.48616e-06
7.88416e-06
6.56164e-06
5.4697e-06
4.5677e-06
3.82204e-06
3.20495e-06
2.69361e-06
2.26932e-06
1.91672e-06
1.62321e-06
1.3785e-06
1.17419e-06
1.00336e-06
8.60472e-07
7.41108e-07
6.42196e-07
5.60697e-07
4.89034e-07
4.26319e-07
4.27197e-07
9.95418e-07
8.03176e-08
1.20604e-08
2.26511e-09
7.01249e-10
0.000179985
0.000179957
0.000179935
0.000179923
0.000179925
0.000179951
0.000176354
0.000179986
0.000179959
0.000179938
0.000179925
0.000179923
0.000179936
0.000179971
0.000179987
0.000179962
0.000179941
0.000179926
0.00017992
0.000179925
0.000179942
0.000179987
0.000179963
0.000179943
0.000179927
0.000179918
0.000179917
0.000179922
0.000179988
0.000179964
0.000179944
0.000179928
0.000179917
0.000179912
0.00017991
0.000179988
0.000179965
0.000179945
0.000179929
0.000179916
0.000179909
0.000179903
0.000179988
0.000179965
0.000179945
0.000179928
0.000179915
0.000179906
0.000179898
0.000179988
0.000179964
0.000179944
0.000179927
0.000179913
0.000179903
0.000179893
0.000179987
0.000179964
0.000179943
0.000179925
0.00017991
0.000179898
0.000179888
0.000179987
0.000179962
0.000179941
0.000179922
0.000179907
0.000179894
0.000179882
0.000179987
0.000179961
0.000179939
0.00017992
0.000179903
0.000179889
0.000179877
0.000179986
0.00017996
0.000179937
0.000179917
0.0001799
0.000179885
0.000179872
0.000179986
0.000179959
0.000179935
0.000179915
0.000179897
0.000179881
0.000179867
0.000179985
0.000179958
0.000179934
0.000179913
0.000179894
0.000179878
0.000179864
0.000179985
0.000179957
0.000179933
0.000179911
0.000179893
0.000179876
0.000179861
0.000179985
0.000179957
0.000179932
0.00017991
0.000179891
0.000179874
0.00017986
0.000179985
0.000179957
0.000179932
0.00017991
0.00017989
0.000179873
0.000179858
0.000179985
0.000179956
0.000179931
0.000179909
0.00017989
0.000179873
0.000179857
0.000179985
0.000179956
0.000179931
0.000179909
0.000179889
0.000179872
0.000179857
0.000179985
0.000179956
0.000179931
0.000179909
0.000179889
0.000179872
0.000179857
0.000179985
0.000179956
0.000179931
0.000179908
0.000179889
0.000179872
0.000179856
0.000179985
0.000179956
0.000179931
0.000179908
0.000179889
0.000179871
0.000179856
0.000179985
0.000179956
0.000179931
0.000179908
0.000179889
0.000179871
0.000179856
0.000179985
0.000179956
0.000179931
0.000179908
0.000179889
0.000179871
0.000179856
0.000179985
0.000179956
0.000179931
0.000179908
0.000179889
0.000179871
0.000179856
0.000179985
0.000179956
0.000179931
0.000179908
0.000179889
0.000179871
0.000179856
0.000179985
0.000179956
0.000179931
0.000179908
0.000179889
0.000179871
0.000179856
0.000179985
0.000179956
0.000179931
0.000179908
0.000179889
0.000179871
0.000179856
0.000179985
0.000179956
0.000179931
0.000179908
0.000179889
0.000179871
0.000179856
0.000179985
0.000179956
0.000179931
0.000179908
0.000179889
0.000179871
0.000179856
0.000179985
0.000179956
0.000179931
0.000179908
0.000179888
0.000179871
0.000179856
0.000179985
0.000179956
0.000179931
0.000179908
0.000179888
0.000179871
0.000179856
0.000179985
0.000179956
0.000179931
0.000179908
0.000179888
0.000179871
0.000179856
0.000179985
0.000179956
0.000179931
0.000179908
0.000179888
0.000179871
0.000179856
0.000179985
0.000179956
0.000179931
0.000179908
0.000179888
0.000179871
0.000179856
0.000179985
0.000179956
0.000179931
0.000179908
0.000179888
0.000179871
0.000179856
0.000179985
0.000179956
0.000179931
0.000179908
0.000179888
0.000179871
0.000179856
0.000179985
0.000179956
0.000179931
0.000179908
0.000179888
0.000179871
0.000179856
0.000179985
0.000179956
0.000179931
0.000179908
0.000179888
0.000179871
0.000179856
0.000179985
0.000179956
0.000179931
0.000179908
0.000179888
0.000179871
0.000179856
0.000168391
0.000156567
0.000151755
0.000153061
0.000153896
0.00015358
0.000153345
0.000153443
0.000153466
0.000153215
0.000152762
0.000152211
0.000151606
0.000150966
0.000150311
0.000149658
0.00014902
0.000148439
0.000147779
0.000147937
0.000179984
0.000177954
0.000179991
0.000179993
0.000179995
0.000179998
0.000180001
0.000180005
0.00018001
0.000180016
0.000180023
0.000180031
0.000180039
0.000180049
0.00018006
0.000180072
0.000180085
0.0001801
0.000178589
0.00017748
0.000179949
0.000179952
0.000179954
0.000179954
0.000179955
0.000179957
0.000179959
0.000179961
0.000179964
0.000179967
0.000179971
0.000179975
0.00017998
0.000179985
0.000179991
0.000179998
0.000180006
0.000180015
0.000180025
0.000180036
0.000179925
0.000179926
0.000179927
0.000179927
0.000179926
0.000179926
0.000179926
0.000179926
0.000179926
0.000179927
0.000179928
0.000179929
0.000179931
0.000179933
0.000179936
0.000179939
0.000179943
0.000179948
0.000179953
0.000179959
0.00017991
0.00017991
0.00017991
0.000179909
0.000179908
0.000179907
0.000179906
0.000179905
0.000179905
0.000179904
0.000179904
0.000179904
0.000179905
0.000179905
0.000179906
0.000179907
0.000179909
0.000179911
0.000179914
0.000179917
0.0001799
0.0001799
0.000179899
0.000179897
0.000179896
0.000179894
0.000179892
0.000179891
0.00017989
0.000179888
0.000179887
0.000179886
0.000179885
0.000179884
0.000179884
0.000179883
0.000179883
0.000179884
0.000179884
0.000179885
0.000179894
0.000179893
0.000179891
0.000179889
0.000179887
0.000179884
0.000179882
0.00017988
0.000179878
0.000179876
0.000179874
0.000179872
0.00017987
0.000179869
0.000179867
0.000179866
0.000179865
0.000179864
0.000179863
0.000179863
0.000179888
0.000179886
0.000179884
0.000179881
0.000179879
0.000179876
0.000179873
0.000179871
0.000179868
0.000179865
0.000179863
0.00017986
0.000179858
0.000179855
0.000179853
0.000179851
0.000179849
0.000179847
0.000179845
0.000179844
0.000179882
0.000179879
0.000179877
0.000179874
0.000179871
0.000179868
0.000179865
0.000179861
0.000179858
0.000179855
0.000179852
0.000179849
0.000179846
0.000179843
0.00017984
0.000179837
0.000179834
0.000179832
0.000179829
0.000179827
0.000179875
0.000179873
0.00017987
0.000179866
0.000179863
0.00017986
0.000179856
0.000179853
0.000179849
0.000179846
0.000179842
0.000179839
0.000179836
0.000179832
0.000179829
0.000179825
0.000179822
0.000179819
0.000179816
0.000179813
0.000179869
0.000179866
0.000179863
0.00017986
0.000179856
0.000179853
0.000179849
0.000179845
0.000179842
0.000179838
0.000179834
0.00017983
0.000179827
0.000179823
0.000179819
0.000179815
0.000179812
0.000179808
0.000179805
0.000179801
0.000179864
0.000179861
0.000179857
0.000179854
0.00017985
0.000179846
0.000179843
0.000179839
0.000179835
0.000179831
0.000179827
0.000179823
0.000179819
0.000179815
0.000179811
0.000179807
0.000179803
0.000179799
0.000179796
0.000179792
0.000179859
0.000179856
0.000179852
0.000179849
0.000179845
0.000179841
0.000179838
0.000179834
0.00017983
0.000179826
0.000179822
0.000179818
0.000179813
0.000179809
0.000179805
0.000179801
0.000179797
0.000179793
0.000179789
0.000179784
0.000179856
0.000179852
0.000179849
0.000179845
0.000179841
0.000179838
0.000179834
0.00017983
0.000179826
0.000179822
0.000179817
0.000179813
0.000179809
0.000179805
0.0001798
0.000179796
0.000179792
0.000179788
0.000179783
0.000179779
0.000179853
0.000179849
0.000179846
0.000179842
0.000179838
0.000179835
0.000179831
0.000179827
0.000179823
0.000179818
0.000179814
0.00017981
0.000179806
0.000179801
0.000179797
0.000179793
0.000179788
0.000179784
0.000179779
0.000179775
0.000179851
0.000179848
0.000179844
0.00017984
0.000179836
0.000179833
0.000179829
0.000179825
0.00017982
0.000179816
0.000179812
0.000179808
0.000179803
0.000179799
0.000179795
0.00017979
0.000179786
0.000179781
0.000179777
0.000179772
0.00017985
0.000179846
0.000179843
0.000179839
0.000179835
0.000179831
0.000179827
0.000179823
0.000179819
0.000179815
0.00017981
0.000179806
0.000179802
0.000179797
0.000179793
0.000179788
0.000179784
0.000179779
0.000179775
0.00017977
0.000179849
0.000179845
0.000179842
0.000179838
0.000179834
0.00017983
0.000179826
0.000179822
0.000179818
0.000179814
0.000179809
0.000179805
0.000179801
0.000179796
0.000179792
0.000179787
0.000179783
0.000179778
0.000179774
0.000179769
0.000179848
0.000179845
0.000179841
0.000179837
0.000179833
0.000179829
0.000179825
0.000179821
0.000179817
0.000179813
0.000179809
0.000179804
0.0001798
0.000179795
0.000179791
0.000179786
0.000179782
0.000179777
0.000179773
0.000179768
0.000179848
0.000179844
0.000179841
0.000179837
0.000179833
0.000179829
0.000179825
0.000179821
0.000179817
0.000179812
0.000179808
0.000179804
0.000179799
0.000179795
0.00017979
0.000179786
0.000179781
0.000179777
0.000179772
0.000179768
0.000179847
0.000179844
0.00017984
0.000179836
0.000179833
0.000179829
0.000179825
0.000179821
0.000179816
0.000179812
0.000179808
0.000179803
0.000179799
0.000179795
0.00017979
0.000179786
0.000179781
0.000179776
0.000179772
0.000179767
0.000179847
0.000179844
0.00017984
0.000179836
0.000179832
0.000179828
0.000179824
0.00017982
0.000179816
0.000179812
0.000179808
0.000179803
0.000179799
0.000179794
0.00017979
0.000179785
0.000179781
0.000179776
0.000179772
0.000179767
0.000179847
0.000179844
0.00017984