/*--------------------------------*- C++ -*----------------------------------*\
  =========                 |
  \\      /  F ield         | OpenFOAM: The Open Source CFD Toolbox
   \\    /   O peration     | Website:  https://openfoam.org
    \\  /    A nd           | Version:  13
     \\/     M anipulation  |
\*---------------------------------------------------------------------------*/
FoamFile
{
    format      ascii;
    class       volScalarField;
    location    "190";
    object      omega;
}
// * * * * * * * * * * * * * * * * * * * * * * * * * * * * * * * * * * * * * //

dimensions      [0 0 -1 0 0 0 0];

internalField   nonuniform List<scalar> 
26820
(
24.2823
24.25
24.2233
24.202
24.1863
24.1759
24.1714
24.2823
24.25
24.2231
24.2018
24.186
24.1756
24.171
24.2822
24.2498
24.2229
24.2016
24.1857
24.1752
24.1706
24.2822
24.2496
24.2226
24.2012
24.1852
24.1747
24.1701
24.2821
24.2493
24.2222
24.2006
24.1846
24.174
24.1693
24.2819
24.249
24.2216
24.1999
24.1837
24.1731
24.1683
24.2818
24.2486
24.221
24.1991
24.1827
24.172
24.1671
24.2816
24.2481
24.2202
24.1981
24.1816
24.1707
24.1657
24.2814
24.2475
24.2194
24.197
24.1803
24.1693
24.1642
24.2812
24.2469
24.2184
24.1958
24.1788
24.1677
24.1624
24.281
24.2462
24.2173
24.1944
24.1771
24.166
24.1605
24.2807
24.2454
24.2161
24.1929
24.1753
24.1641
24.1585
24.2804
24.2446
24.2148
24.1912
24.1733
24.162
24.1563
24.2801
24.2437
24.2134
24.1895
24.1712
24.1598
24.1539
24.2798
24.2428
24.2119
24.1875
24.1689
24.1574
24.1513
24.2795
24.2417
24.2103
24.1855
24.1664
24.1549
24.1486
24.2791
24.2406
24.2086
24.1833
24.1638
24.1522
24.1456
24.2787
24.2395
24.2068
24.1811
24.1613
24.1496
24.1429
24.2783
24.2383
24.2051
24.1791
24.1594
24.1476
24.1416
24.2779
24.237
24.203
24.1761
24.1558
24.144
24.1371
24.1732
24.1836
24.2054
24.2419
24.2978
24.3795
24.4956
24.6584
24.8832
25.1973
25.6093
26.0916
26.6453
27.2798
28.0088
28.8494
29.8231
30.9569
32.285
33.8511
35.7122
37.9434
40.6454
43.9557
48.0662
53.2508
59.9116
68.6571
80.4446
96.8419
120.578
156.622
215.331
317.981
531.201
1008.05
3108.25
31230.1
316144
2.69204e+06
24.1728
24.1832
24.2049
24.2415
24.2974
24.3791
24.4952
24.658
24.8829
25.1971
25.6094
26.092
26.6461
27.281
28.0103
28.8513
29.8253
30.9594
32.2877
33.854
35.7152
37.9463
40.6479
43.9574
48.0666
53.2489
59.9058
68.6452
80.4225
96.8023
120.508
156.495
215.091
317.501
530.118
1005.45
3096.79
31293
317215
2.69204e+06
24.1724
24.1828
24.2046
24.2412
24.2972
24.3791
24.4954
24.6586
24.8838
25.1985
25.6116
26.0951
26.65
27.2858
28.0161
28.8582
29.8335
30.9689
32.2988
33.8668
35.73
37.9633
40.6676
43.9802
48.093
53.2795
59.9414
68.6865
80.4701
96.8566
120.568
156.555
215.135
317.48
529.898
1004.51
3099.52
31398.8
317785
2.69204e+06
24.1718
24.1824
24.2043
24.241
24.2972
24.3793
24.496
24.6596
24.8855
25.201
25.6153
26.1001
26.6564
27.2937
28.0256
28.8694
29.8467
30.9845
32.3171
33.8883
35.7552
37.9932
40.703
44.0226
48.144
53.3416
60.0179
68.7821
80.5918
97.0145
120.778
156.844
215.546
318.101
531.001
1006.11
3125.55
31595.2
318389
2.69204e+06
24.1711
24.1818
24.2038
24.2408
24.2972
24.3795
24.4967
24.6608
24.8874
25.2038
25.6197
26.1063
26.6645
27.3037
28.0378
28.884
29.8639
31.0047
32.3408
33.9162
35.7882
38.0323
40.7497
44.0787
48.2121
53.4254
60.1225
68.915
80.7641
97.2439
121.093
157.295
216.23
319.208
533.181
1009.67
3175.31
31909.5
319306
2.69204e+06
24.1702
24.181
24.2033
24.2404
24.2971
24.3799
24.4975
24.6622
24.8897
25.2073
25.625
26.1138
26.6743
27.3161
28.0528
28.9019
29.8851
31.0297
32.3702
33.9507
35.8289
38.0806
40.8074
44.1483
48.297
53.5302
60.2539
69.0831
80.9841
97.5402
121.506
157.898
217.167
320.772
536.389
1015.07
3249.78
32358.2
320619
2.69204e+06
24.1691
24.1801
24.2026
24.24
24.2971
24.3803
24.4985
24.6641
24.8926
25.2114
25.6315
26.1229
26.6861
27.3308
28.0707
28.9233
29.9105
31.0597
32.4054
33.9923
35.878
38.1389
40.8771
44.2324
48.3997
53.6572
60.4138
69.2883
81.2542
97.9063
122.022
158.659
218.365
322.803
540.651
1022.43
3350.59
32949.6
322345
2.69204e+06
24.1678
24.179
24.2018
24.2396
24.2971
24.3808
24.4998
24.6663
24.8961
25.2165
25.6392
26.1336
26.7
27.3481
28.0917
28.9485
29.9404
31.0948
32.4468
34.0411
35.9357
38.2074
40.9591
44.3314
48.5207
53.8072
60.6029
69.5318
81.5755
98.344
122.641
159.579
219.829
325.312
545.982
1031.91
3479.6
33688.1
324480
2.69204e+06
24.1664
24.1778
24.201
24.2392
24.2971
24.3815
24.5013
24.6689
24.9002
25.2224
25.6482
26.1461
26.7162
27.3681
28.116
28.9775
29.9747
31.1353
32.4945
34.0973
36.0021
38.2864
41.0537
44.4458
48.6605
53.9807
60.822
69.8143
81.9493
98.8545
123.366
160.662
221.562
328.308
552.393
1043.68
3639.07
34577.4
327015
2.69204e+06
24.1648
24.1765
24.2001
24.2387
24.2972
24.3824
24.5031
24.672
24.905
25.2292
25.6586
26.1604
26.7346
27.391
28.1437
29.0105
30.0137
31.1813
32.5487
34.1611
36.0776
38.3761
41.1612
44.5759
48.8197
54.1784
61.0719
70.137
82.3771
99.44
124.201
161.913
223.573
331.806
559.903
1058.04
3831.93
35622.1
329943
2.69204e+06
24.163
24.1751
24.1991
24.2382
24.2974
24.3834
24.5052
24.6756
24.9104
25.237
25.6704
26.1766
26.7555
27.4168
28.1748
29.0476
30.0576
31.233
32.6095
34.2328
36.1624
38.477
41.2822
44.7222
48.9989
54.4011
61.3536
70.5012
82.8606
100.103
125.148
163.337
225.871
335.829
568.548
1075.35
4061.6
36828.4
333257
2.69204e+06
24.1611
24.1736
24.198
24.2378
24.2977
24.3846
24.5077
24.6796
24.9166
25.2458
25.6837
26.1948
26.7788
27.4456
28.2096
29.089
30.1065
31.2906
32.6772
34.3126
36.2569
38.5894
41.4169
44.8854
49.1989
54.6498
61.6685
70.9088
83.4024
100.847
126.213
164.943
228.471
340.407
578.376
1096.08
4334.65
38205.4
336959
2.69204e+06
24.1591
24.172
24.197
24.2373
24.2981
24.386
24.5105
24.6842
24.9235
25.2556
25.6985
26.2151
26.8048
27.4777
28.2482
29.1348
30.1606
31.3542
32.7521
34.4009
36.3613
38.7138
41.5661
45.066
49.4204
54.9255
62.0179
71.3615
84.0049
101.676
127.402
166.74
231.388
345.577
589.452
1121.04
4638.17
39761.3
341053
2.69204e+06
24.1569
24.1702
24.1959
24.2369
24.2986
24.3877
24.5137
24.6893
24.9313
25.2666
25.715
26.2376
26.8336
27.513
28.2907
29.1853
30.2202
31.4243
32.8345
34.4979
36.4762
38.8505
41.7301
45.2649
49.6644
55.2294
62.4035
71.8615
84.6714
102.595
128.722
168.74
234.643
351.384
601.847
1151.53
4941.37
41501.3
345544
2.69204e+06
24.1546
24.1685
24.1947
24.2366
24.2993
24.3897
24.5173
24.6951
24.9399
25.2788
25.7332
26.2623
26.8652
27.5518
28.3374
29.2407
30.2854
31.5009
32.9246
34.6041
36.6019
39.0002
41.9098
45.4828
49.9319
55.563
62.827
72.4115
85.4053
103.608
130.181
170.956
238.262
357.883
615.657
1188.73
5251.58
43435
350443
2.69204e+06
24.1522
24.1666
24.1936
24.2364
24.3001
24.392
24.5214
24.7015
24.9495
25.2922
25.7532
26.2896
26.8998
27.5943
28.3883
29.3011
30.3566
31.5845
33.0228
34.7199
36.7389
39.1634
42.1059
45.7207
50.2242
55.9276
63.2905
73.0141
86.2108
104.722
131.788
173.405
242.272
365.137
631.017
1233.79
5581.65
45577.1
355763
2.69204e+06
24.1496
24.1647
24.1926
24.2363
24.3013
24.3946
24.526
24.7087
24.9601
25.307
25.7752
26.3194
26.9377
27.6406
28.4438
29.3668
30.4339
31.6754
33.1296
34.8457
36.8878
39.3409
42.3191
45.9796
50.5426
56.3252
63.7964
73.6727
87.0923
105.943
133.554
176.104
246.707
373.22
648.109
1287.94
5944.17
47947
361520
2.69204e+06
24.1469
24.1627
24.1915
24.2364
24.3026
24.3977
24.5312
24.7166
24.9717
25.3232
25.7993
26.3519
26.9789
27.691
28.5041
29.4381
30.5178
31.7738
33.2452
34.982
37.0492
39.5333
42.5504
46.2606
50.8885
56.7576
64.3472
74.3908
88.0551
107.28
135.492
179.075
251.606
382.217
667.169
1352.66
6351.47
50568.7
367733
2.69204e+06
24.145
24.1609
24.1906
24.2366
24.3043
24.4011
24.5369
24.7254
24.9845
25.3409
25.8256
26.3874
27.0237
27.7456
28.5693
29.5152
30.6084
31.8802
33.3703
35.1293
37.2238
39.7414
42.8009
46.5651
51.2636
57.227
64.946
75.1725
89.1052
108.74
137.615
182.341
257.016
392.23
688.501
1429.82
6816.19
53470.8
374423
2.69204e+06
24.1427
24.1591
24.1898
24.2371
24.3064
24.4051
24.5434
24.735
24.9985
25.3603
25.8543
26.426
27.0723
27.8048
28.6399
29.5985
30.7063
31.9951
33.5052
35.2884
37.4122
39.9663
43.0715
46.8945
51.6697
57.7358
65.596
76.0225
90.249
110.336
139.94
185.932
262.99
403.376
712.495
1521.82
7352.09
56685.6
381615
2.69204e+06
24.1394
24.1577
24.1891
24.2379
24.3088
24.4096
24.5505
24.7457
25.0138
25.3815
25.8856
26.4679
27.125
27.8687
28.7161
29.6884
30.8118
32.1188
33.6506
35.4598
37.6154
40.2089
43.3637
47.2503
52.109
58.2869
66.3009
76.9459
91.4944
112.077
142.486
189.88
269.592
415.796
739.645
1631.74
7974.76
60251.3
389361
2.69204e+06
24.1362
24.1562
24.1885
24.2388
24.3117
24.4147
24.5585
24.7574
25.0306
25.4046
25.9197
26.5134
27.182
27.9377
28.7982
29.7851
30.9253
32.252
33.807
35.6443
37.8342
40.4702
43.6788
47.6345
52.5837
58.8832
67.0649
77.9487
92.8498
113.977
145.274
194.222
276.895
429.658
770.589
1763.52
8702.11
64201
397506
2.69204e+06
24.1337
24.1548
24.1879
24.2396
24.3148
24.4205
24.5674
24.7703
25.0489
25.4297
25.9568
26.5627
27.2437
28.0122
28.8866
29.8892
31.0474
32.3951
33.9751
35.8427
38.0696
40.7516
44.0183
48.0488
53.0964
59.5282
67.8927
79.0375
94.3252
116.051
148.329
199.002
284.988
445.165
806.155
1922.28
9555.85
68614.7
407855
2.69204e+06
24.1317
24.1537
24.1875
24.2406
24.3181
24.4268
24.5772
24.7844
25.0689
25.457
25.997
26.6162
27.3103
28.0925
28.9817
30.001
31.1785
32.5488
34.1558
36.0558
38.3227
41.0544
44.384
48.4957
53.65
60.2257
68.7898
80.2199
95.9316
118.317
151.68
204.273
293.974
462.568
847.427
2114.56
10560.1
73554.5
421113
2.69204e+06
24.1297
24.153
24.1876
24.2418
24.3217
24.4337
24.5879
24.7999
25.0907
25.4867
26.0409
26.6742
27.3822
28.1789
29.0839
30.1212
31.3193
32.7138
34.3497
36.2848
38.5947
41.3801
44.7778
48.9774
54.2478
60.9803
69.762
81.5045
97.682
120.795
155.36
210.095
303.978
482.175
895.845
2348.98
11757.7
79441.6
436447
2.69204e+06
24.1277
24.1525
24.1883
24.2435
24.3255
24.4411
24.5997
24.8169
25.1144
25.519
26.088
26.7369
27.4598
28.2719
29.1938
30.2501
31.4703
32.8909
34.5579
36.5307
38.887
41.7305
45.2019
49.4969
54.8933
61.7967
70.8163
82.9012
99.591
123.508
159.408
216.539
315.146
504.379
953.326
2636.21
13150.8
84241.1
455254
2.69204e+06
24.1256
24.1522
24.1896
24.2459
24.3299
24.449
24.6125
24.8354
25.1403
25.5541
26.1383
26.8046
27.5436
28.372
29.3119
30.3885
31.6323
33.0808
34.7813
36.7947
39.2011
42.1073
45.6586
50.0572
55.5909
62.6805
71.9604
84.4212
101.675
126.482
163.869
223.69
327.66
529.68
1022.53
2990.06
14816.3
87751.9
476782
2.69204e+06
24.1235
24.1521
24.1913
24.249
24.335
24.4577
24.6263
24.8556
25.1685
25.5924
26.1922
26.8775
27.6339
28.4798
29.4387
30.537
31.8061
33.2845
35.0209
37.0782
39.5387
42.5128
46.1507
50.6618
56.345
63.6382
73.2033
86.0774
103.955
129.75
168.799
231.65
341.738
558.743
1106.68
3397.5
16265.5
90860.2
499944
2.69204e+06
24.1214
24.152
24.1936
24.2529
24.3409
24.4673
24.6414
24.8775
25.1991
25.6341
26.2501
26.956
27.7313
28.5957
29.5748
30.6963
31.9925
33.503
35.2782
37.3827
39.9017
42.9492
46.6811
51.3147
57.1609
64.6768
74.555
87.8846
106.453
133.348
174.259
240.54
357.657
592.41
1210.12
3817.43
17364.8
94183.7
523798
2.69204e+06
24.1194
24.152
24.1962
24.2576
24.3478
24.4779
24.6577
24.9014
25.2325
25.6795
26.3127
27.0408
27.8361
28.7203
29.721
30.8672
32.1924
33.7375
35.5543
37.7098
40.2921
43.4193
47.2533
52.0203
58.0447
65.8047
76.0272
89.8601
109.195
137.319
180.327
250.51
375.744
632.035
1332.37
4166.52
18162
98175.2
547582
2.69204e+06
24.1176
24.1522
24.1992
24.2631
24.3557
24.4898
24.6756
24.9273
25.2687
25.7289
26.3806
27.1323
27.9491
28.8544
29.878
31.0507
32.407
33.9892
35.8509
38.0615
40.7123
43.926
47.8711
52.7837
59.0031
67.0311
77.6334
92.0237
112.212
141.714
187.093
261.734
396.529
677.79
1456.12
4430.85
18710.6
103184
570662
2.69204e+06
24.116
24.1527
24.2026
24.2694
24.3648
24.503
24.6952
24.9556
25.3082
25.7828
26.4542
27.2313
28.071
28.9986
30.0467
31.2476
32.6373
34.2595
36.1697
38.4399
41.1649
44.4727
48.5389
53.6106
60.0439
68.3671
79.3892
94.3989
115.541
146.594
194.668
274.482
420.008
727.66
1579.79
4581.74
19121.1
109462
592480
2.69204e+06
24.1148
24.1535
24.2065
24.2765
24.3752
24.5178
24.7167
24.9864
25.3511
25.8415
26.5342
27.3386
28.2024
29.1537
30.2279
31.4591
32.8846
34.5499
36.5125
38.8472
41.6529
45.0631
49.2615
54.5076
61.1761
69.825
81.3126
97.0126
119.225
152.037
203.19
288.763
446.193
783.88
1695.54
4584.55
19574.5
117152
612510
2.69204e+06
24.1139
24.1546
24.2109
24.2844
24.3867
24.5343
24.7404
25.02
25.3979
25.9054
26.6213
27.4551
28.3442
29.3206
30.4226
31.6863
33.1504
34.8622
36.8815
39.2863
42.1797
45.7015
50.0448
55.4823
62.4099
71.4193
83.4247
99.8987
123.32
158.102
212.718
304.81
476.009
849.164
1784.42
4414.86
20324.7
126277
630230
2.69204e+06
24.1135
24.1563
24.2159
24.2932
24.3997
24.5526
24.7665
25.0569
25.449
25.9752
26.7163
27.5818
28.4973
29.5003
30.6321
31.9306
33.4363
35.1983
37.2791
39.76
42.749
46.393
50.8949
56.5431
63.7573
73.1675
85.7517
103.088
127.862
164.88
223.43
322.951
511.34
924.488
1813.08
4080.02
21685.2
136722
645109
2.69204e+06
24.1136
24.1585
24.2216
24.303
24.4141
24.5731
24.7953
25.0972
25.5048
26.0515
26.82
27.7196
28.6627
29.6938
30.8574
32.1934
33.7441
35.5605
37.708
40.2718
43.3653
47.143
51.8196
57.7005
65.232
75.0865
88.3158
106.622
132.927
172.491
235.504
343.793
555.324
1005.23
1735.45
3644.47
24004.2
148229
656613
2.69204e+06
24.1142
24.1614
24.2281
24.3138
24.4301
24.5957
24.8271
25.1415
25.5658
26.1349
26.9333
27.8698
28.8415
29.9023
31.1001
32.4765
34.0757
35.9512
38.1713
40.8256
44.0335
47.9581
52.8267
58.9647
66.8483
77.1992
91.1518
110.555
138.599
181.06
249.141
368.737
611.951
1074.5
1498.59
3254.1
27626
160395
664224
2.69204e+06
24.1154
24.165
24.2355
24.3259
24.4478
24.6208
24.8622
25.1901
25.6327
26.2263
27.0574
28.0337
29.0348
30.1271
31.3615
32.7816
34.4335
36.3732
38.6724
41.4255
44.7588
48.8451
53.926
60.3491
68.6253
79.5325
94.3004
114.948
144.98
190.724
264.721
400.333
682.966
1101.67
1081.08
3155.18
32844.1
172680
667494
2.69204e+06
24.1174
24.1695
24.2439
24.3394
24.4675
24.6488
24.9011
25.2439
25.7064
26.3269
27.194
28.2135
29.2442
30.37
31.644
33.1114
34.8206
36.8302
39.216
42.0776
45.5488
49.8135
55.1299
61.8704
70.5858
82.119
97.8103
119.88
152.183
201.555
282.984
443.481
767.911
1027.33
411.702
3689.91
39824.8
184421
666081
2.69204e+06
24.1199
24.1747
24.2533
24.354
24.4888
24.679
24.9431
25.3018
25.7857
26.4356
27.3415
28.4067
29.4681
30.6296
31.946
33.4645
35.2356
37.3213
39.8015
42.7818
46.4047
50.8665
56.4442
63.539
72.7476
84.9886
101.734
125.438
160.274
213.759
306.769
503.547
833.779
770.961
0.00376978
5315.83
48653.6
195048
660078
2.69206e+06
24.2775
24.2361
24.2015
24.1737
24.1525
24.1381
24.132
24.2775
24.236
24.2012
24.1727
24.1504
24.1339
24.1237
24.2775
24.2359
24.2006
24.1714
24.1479
24.1295
24.1164
24.2774
24.2357
24.2
24.17
24.1453
24.1254
24.11
24.2774
24.2354
24.1993
24.1686
24.1428
24.1215
24.1043
24.2773
24.235
24.1985
24.1672
24.1404
24.118
24.0992
24.2772
24.2346
24.1977
24.1657
24.1382
24.1147
24.0947
24.2771
24.2342
24.1968
24.1644
24.1362
24.1119
24.0909
24.2769
24.2337
24.196
24.1631
24.1344
24.1094
24.0877
24.2768
24.2333
24.1952
24.1619
24.1328
24.1074
24.0851
24.2767
24.2329
24.1946
24.161
24.1315
24.1057
24.0831
24.2766
24.2326
24.194
24.1602
24.1304
24.1044
24.0815
24.2765
24.2324
24.1936
24.1595
24.1296
24.1033
24.0802
24.2764
24.2321
24.1932
24.1591
24.129
24.1026
24.0793
24.2764
24.232
24.193
24.1587
24.1285
24.102
24.0787
24.2763
24.2319
24.1928
24.1584
24.1282
24.1016
24.0782
24.2763
24.2318
24.1927
24.1583
24.128
24.1013
24.0779
24.2763
24.2317
24.1926
24.1581
24.1278
24.1011
24.0777
24.2763
24.2317
24.1925
24.158
24.1277
24.101
24.0775
24.2763
24.2317
24.1925
24.158
24.1276
24.1009
24.0774
24.2762
24.2317
24.1924
24.1579
24.1276
24.1009
24.0773
24.2762
24.2316
24.1924
24.1579
24.1275
24.1008
24.0773
24.2762
24.2316
24.1924
24.1579
24.1275
24.1008
24.0773
24.2762
24.2316
24.1924
24.1579
24.1275
24.1008
24.0772
24.2762
24.2316
24.1924
24.1579
24.1275
24.1008
24.0772
24.2762
24.2316
24.1924
24.1579
24.1275
24.1008
24.0772
24.2762
24.2316
24.1924
24.1579
24.1275
24.1008
24.0772
24.2762
24.2316
24.1924
24.1579
24.1275
24.1007
24.0772
24.2762
24.2316
24.1924
24.1579
24.1275
24.1007
24.0772
24.2762
24.2316
24.1924
24.1579
24.1275
24.1007
24.0772
24.2762
24.2316
24.1924
24.1579
24.1275
24.1007
24.0772
24.2762
24.2316
24.1924
24.1579
24.1275
24.1007
24.0772
24.2762
24.2316
24.1924
24.1579
24.1275
24.1007
24.0772
24.2762
24.2316
24.1924
24.1579
24.1275
24.1007
24.0772
24.2762
24.2316
24.1924
24.1579
24.1275
24.1007
24.0772
24.2762
24.2316
24.1924
24.1579
24.1275
24.1007
24.0772
24.2762
24.2316
24.1924
24.1579
24.1275
24.1007
24.0772
24.2762
24.2316
24.1924
24.1579
24.1275
24.1007
24.0772
24.2762
24.2316
24.1924
24.1579
24.1275
24.1007
24.0772
24.2762
24.2316
24.1924
24.1579
24.1275
24.1007
24.0772
24.1255
24.1224
24.1194
24.1162
24.1127
24.1092
24.1057
24.1021
24.0987
24.0953
24.0921
24.0891
24.0864
24.0839
24.0818
24.08
24.0786
24.0776
24.0772
24.0773
24.1159
24.1124
24.1085
24.1043
24.0998
24.0954
24.0911
24.0868
24.0826
24.0785
24.0745
24.0707
24.067
24.0634
24.06
24.0569
24.054
24.0514
24.0491
24.0472
24.1074
24.1035
24.0994
24.0949
24.0903
24.0857
24.0811
24.0765
24.0719
24.0673
24.0628
24.0582
24.0538
24.0495
24.0453
24.0412
24.0373
24.0337
24.0302
24.0271
24.0999
24.0957
24.0912
24.0863
24.0813
24.0762
24.0711
24.066
24.0608
24.0556
24.0504
24.0452
24.0401
24.035
24.03
24.0252
24.0204
24.0159
24.0115
24.0073
24.0933
24.0888
24.0839
24.0788
24.0736
24.0682
24.0628
24.0574
24.0519
24.0463
24.0408
24.0352
24.0296
24.0241
24.0186
24.0132
24.0078
24.0026
23.9975
23.9925
24.0875
24.0827
24.0777
24.0724
24.0669
24.0613
24.0557
24.05
24.0442
24.0383
24.0324
24.0265
24.0206
24.0146
24.0087
24.0028
23.997
23.9912
23.9855
23.98
24.0825
24.0775
24.0723
24.0668
24.0613
24.0555
24.0497
24.0438
24.0378
24.0318
24.0257
24.0195
24.0133
24.0071
24.0008
23.9946
23.9884
23.9822
23.9761
23.9701
24.0783
24.0732
24.0678
24.0623
24.0566
24.0508
24.0449
24.0388
24.0327
24.0265
24.0202
24.0139
24.0075
24.0011
23.9946
23.9882
23.9817
23.9753
23.9689
23.9625
24.0748
24.0696
24.0642
24.0586
24.0529
24.047
24.041
24.0349
24.0286
24.0223
24.0159
24.0095
24.003
23.9964
23.9898
23.9832
23.9765
23.9699
23.9633
23.9567
24.072
24.0667
24.0613
24.0557
24.0499
24.0439
24.0379
24.0317
24.0254
24.0191
24.0126
24.006
23.9994
23.9928
23.9861
23.9793
23.9726
23.9658
23.959
23.9523
24.0698
24.0645
24.059
24.0533
24.0475
24.0416
24.0355
24.0293
24.0229
24.0165
24.01
24.0034
23.9967
23.99
23.9832
23.9764
23.9695
23.9627
23.9558
23.9489
24.068
24.0627
24.0572
24.0516
24.0457
24.0397
24.0336
24.0274
24.021
24.0146
24.008
24.0014
23.9947
23.9879
23.9811
23.9742
23.9673
23.9603
23.9534
23.9464
24.0667
24.0614
24.0559
24.0502
24.0444
24.0384
24.0322
24.026
24.0196
24.0131
24.0065
23.9999
23.9931
23.9863
23.9794
23.9725
23.9656
23.9586
23.9516
23.9446
24.0658
24.0604
24.0549
24.0492
24.0433
24.0373
24.0312
24.0249
24.0185
24.012
24.0054
23.9988
23.992
23.9852
23.9783
23.9713
23.9643
23.9573
23.9503
23.9433
24.0651
24.0597
24.0542
24.0485
24.0426
24.0366
24.0304
24.0242
24.0178
24.0112
24.0046
23.9979
23.9912
23.9843
23.9774
23.9704
23.9634
23.9564
23.9494
23.9423
24.0646
24.0592
24.0536
24.0479
24.0421
24.036
24.0299
24.0236
24.0172
24.0107
24.004
23.9973
23.9906
23.9837
23.9768
23.9698
23.9628
23.9558
23.9487
23.9416
24.0642
24.0588
24.0533
24.0475
24.0417
24.0356
24.0295
24.0232
24.0168
24.0102
24.0036
23.9969
23.9901
23.9832
23.9763
23.9694
23.9623
23.9553
23.9482
23.9412
24.064
24.0586
24.053
24.0473
24.0414
24.0353
24.0292
24.0229
24.0164
24.0099
24.0033
23.9966
23.9898
23.9829
23.976
23.969
23.962
23.955
23.9479
23.9408
24.0638
24.0584
24.0528
24.0471
24.0412
24.0351
24.0289
24.0226
24.0162
24.0097
24.0031
23.9963
23.9895
23.9827
23.9758
23.9688
23.9618
23.9547
23.9477
23.9406
24.0637
24.0583
24.0527
24.0469
24.041
24.0349
24.0288
24.0224
24.016
24.0095
24.0029
23.9962
23.9894
23.9825
23.9756
23.9686
23.9616
23.9546
23.9475
23.9404
24.0636
24.0582
24.0526
24.0468
24.0409
24.0348
24.0286
24.0223
24.0159
24.0093
24.0027
23.996
23.9892
23.9824
23.9754
23.9685
23.9615
23.9544
23.9474
23.9403
24.0636
24.0581
24.0525
24.0467
24.0407
24.0347
24.0285
24.0222
24.0157
24.0092
24.0026
23.9959
23.9891
23.9822
23.9753
23.9684
23.9614
23.9544
23.9473
23.9403
24.0635
24.058
24.0524
24.0466
24.0406
24.0346
24.0283
24.022
24.0156
24.0091
24.0024
23.9957
23.989
23.9821
23.9752
23.9683
23.9613
23.9543
23.9472
23.9402
24.0635
24.058
24.0523
24.0465
24.0405
24.0344
24.0282
24.0219
24.0155
24.0089
24.0023
23.9956
23.9889
23.982
23.9751
23.9682
23.9612
23.9542
23.9472
23.9402
24.0635
24.0579
24.0522
24.0464
24.0404
24.0343
24.0281
24.0218
24.0153
24.0088
24.0022
23.9955
23.9887
23.9819
23.975
23.9681
23.9611
23.9542
23.9472
23.9401
24.0634
24.0579
24.0522
24.0463
24.0403
24.0342
24.028
24.0216
24.0152
24.0087
24.0021
23.9954
23.9886
23.9818
23.9749
23.968
23.9611
23.9541
23.9471
23.9401
24.0634
24.0578
24.0521
24.0462
24.0402
24.0341
24.0278
24.0215
24.0151
24.0085
24.0019
23.9952
23.9885
23.9817
23.9748
23.9679
23.961
23.954
23.9471
23.9401
24.0634
24.0578
24.052
24.0461
24.0401
24.0339
24.0277
24.0213
24.0149
24.0084
24.0018
23.9951
23.9884
23.9816
23.9747
23.9678
23.9609
23.954
23.947
23.9401
24.0634
24.0577
24.0519
24.046
24.0399
24.0338
24.0275
24.0212
24.0147
24.0082
24.0016
23.9949
23.9882
23.9814
23.9746
23.9677
23.9609
23.9539
23.947
23.9401
24.0634
24.0576
24.0518
24.0458
24.0398
24.0336
24.0273
24.021
24.0145
24.008
24.0014
23.9948
23.9881
23.9813
23.9745
23.9676
23.9608
23.9539
23.947
23.94
24.0633
24.0576
24.0517
24.0457
24.0396
24.0334
24.0271
24.0208
24.0143
24.0078
24.0012
23.9946
23.9879
23.9811
23.9743
23.9675
23.9607
23.9538
23.9469
23.94
24.0633
24.0575
24.0516
24.0456
24.0394
24.0332
24.0269
24.0206
24.0141
24.0076
24.001
23.9944
23.9877
23.981
23.9742
23.9674
23.9606
23.9537
23.9469
23.94
24.0633
24.0574
24.0514
24.0454
24.0392
24.033
24.0267
24.0203
24.0139
24.0073
24.0008
23.9942
23.9875
23.9808
23.974
23.9673
23.9605
23.9536
23.9468
23.94
24.0632
24.0573
24.0513
24.0452
24.039
24.0328
24.0264
24.02
24.0136
24.0071
24.0005
23.9939
23.9872
23.9806
23.9738
23.9671
23.9603
23.9536
23.9468
23.94
24.0632
24.0572
24.0511
24.045
24.0388
24.0325
24.0261
24.0197
24.0133
24.0068
24.0002
23.9936
23.987
23.9803
23.9736
23.9669
23.9602
23.9535
23.9467
23.94
24.0632
24.0571
24.051
24.0448
24.0385
24.0322
24.0258
24.0194
24.0129
24.0064
23.9999
23.9933
23.9867
23.9801
23.9734
23.9667
23.96
23.9533
23.9466
23.9399
24.0631
24.057
24.0508
24.0445
24.0382
24.0319
24.0255
24.019
24.0126
24.0061
23.9995
23.993
23.9864
23.9798
23.9732
23.9665
23.9599
23.9532
23.9466
23.9399
24.0631
24.0568
24.0505
24.0442
24.0379
24.0315
24.0251
24.0186
24.0122
24.0057
23.9991
23.9926
23.986
23.9795
23.9729
23.9663
23.9597
23.9531
23.9465
23.9399
24.063
24.0567
24.0503
24.0439
24.0375
24.0311
24.0246
24.0182
24.0117
24.0052
23.9987
23.9922
23.9857
23.9791
23.9726
23.966
23.9595
23.9529
23.9464
23.9399
24.0629
24.0565
24.05
24.0436
24.0371
24.0306
24.0242
24.0177
24.0112
24.0047
23.9982
23.9917
23.9852
23.9787
23.9723
23.9658
23.9593
23.9528
23.9463
23.9398
2.73997e+06
2.73997e+06
2.73997e+06
2.73997e+06
2.73997e+06
2.73997e+06
2.73997e+06
2.73997e+06
2.73997e+06
2.73997e+06
2.73997e+06
2.73997e+06
2.73997e+06
2.73997e+06
2.73997e+06
2.73997e+06
2.73997e+06
2.73997e+06
2.73997e+06
2.73997e+06
2.73997e+06
2.73997e+06
2.73997e+06
2.73997e+06
2.73997e+06
2.73997e+06
2.73997e+06
2.73997e+06
2.73997e+06
2.73997e+06
2.73997e+06
2.73997e+06
2.73997e+06
2.73997e+06
2.73997e+06
2.73997e+06
2.73997e+06
2.73997e+06
2.73997e+06
2.73997e+06
2.73997e+06
2.73997e+06
2.73997e+06
2.73997e+06
2.73997e+06
2.73997e+06
2.73997e+06
2.73997e+06
2.73997e+06
2.73997e+06
2.73997e+06
2.73997e+06
2.73997e+06
2.73997e+06
2.73997e+06
2.73997e+06
2.73997e+06
2.73997e+06
2.73997e+06
2.73997e+06
2.73997e+06
2.73997e+06
2.73997e+06
2.73997e+06
2.73997e+06
2.73997e+06
2.73997e+06
2.73997e+06
2.73997e+06
2.73997e+06
2.73997e+06
2.73997e+06
2.73997e+06
2.73997e+06
2.73997e+06
2.73997e+06
2.73997e+06
2.73997e+06
2.73997e+06
2.73997e+06
651384
624094
591226
561045
536376
517064
501990
490106
480705
473327
467598
463161
459676
456870
454565
452663
451107
449848
448852
448104
447484
446963
446523
446153
445872
445716
445583
445470
445377
445299
445232
445177
445133
445099
445075
445060
445055
445061
445076
445101
445136
445180
445233
445294
445361
445432
445506
445580
445652
445722
445786
445844
445896
445940
445976
446005
446027
446043
446062
446084
446098
446104
446105
446100
446092
446081
446067
446051
446034
446016
445998
445979
445960
445942
445923
445905
445887
445870
445854
445837
202532
204672
202993
198710
193178
187433
182045
177213
172919
169070
165588
162435
159606
157104
154914
153006
151337
149872
148586
147468
146493
145644
144905
144262
143634
142891
142217
141634
141171
140783
140447
140160
139916
139709
139537
139396
139283
139199
139140
139105
139093
139103
139132
139178
139237
139308
139387
139470
139554
139636
139712
139781
139840
139889
139927
139952
139967
139972
139954
139919
139880
139839
139796
139751
139705
139657
139609
139561
139512
139464
139416
139369
139322
139277
139233
139189
139147
139106
139066
139028
57856.2
66149.5
74311.2
81825.7
88325.3
93656.3
97825.5
100915
103020
104220
104583
104180
103099
101454
99374.7
96996.2
94447.1
91838.9
89261.7
86783.1
84447.4
82278.9
80287.8
78474.4
76822.3
75294.3
73900.9
72649.9
71481.8
70406
69438.5
68601.4
67866.7
67215.3
66640.8
66134.9
65690.3
65301.9
64964.8
64675
64428.6
64222.1
64052
63914.5
63806.3
63723.3
63661.7
63617
63585.2
63562.1
63543.8
63526.7
63507.7
63484.4
63454.7
63417.4
63371.9
63319.7
63244.8
63159.2
63068.8
62974.6
62877
62776.7
62674.1
62570
62464.9
62359.5
62254.1
62149.4
62045.6
61943.3
61842.7
61744
61647.4
61553.2
61461.5
61372.3
61285.8
61201.9
7910.6
11109.7
15334.5
20479.5
26310.9
32591.9
39044.3
45416
51497
57118.2
62144.4
66470.1
70019.6
72749.5
74650.4
75747.8
76098.6
75786.3
74912.9
73590.6
71932.7
70045.4
68022.7
65942.3
63864.6
61830.2
59868.7
58003.2
56240.2
54584
53041.6
51593.4
50245
49002
47873.6
46843.2
45898.9
45034.6
44243.9
43520.6
42859.6
42256.6
41707.6
41209.2
40757.9
40350.2
39982.8
39652.3
39355
39087
38844.4
38623.3
38419.5
38229.4
38049.5
37876.8
37710.2
37543.2
37370.7
37196
37021.1
36846.2
36671.1
36495.6
36319.8
36144.1
35968.6
35793.8
35620.2
35448.2
35278.2
35110.6
34945.7
34783.8
34625.2
34470.1
34318.7
34171.2
34027.6
33888.1
0.00375871
0.00373637
0.00370135
350.862
1544.44
3439.34
6020.37
9247.35
13045.2
17282.3
21850.4
26612.8
31420.7
36128.3
40598.9
44711.1
48364.1
51482.2
54018.5
55955.2
57301.9
58091.8
58376.1
58218.9
57691
56864.4
55807
54581.3
53241.2
51831.4
50389.2
48941.3
47508.9
46108.3
44741.3
43420.5
42156.4
40956.5
39818.4
38739.5
37718.6
36754.6
35846
34991.4
34189.2
33438.6
32738.5
32087.8
31485
30928.4
30415.5
29943.7
29509.5
29109.5
28739.8
28397.3
28076.4
27771.4
27479.4
27198.5
26927.5
26664.9
26409
26158.5
25912.3
25669.6
25430.1
25193.5
24959.7
24728.8
24500.8
24275.9
24054.5
23836.6
23622.6
23412.6
23206.8
23005.5
22808.6
22616.5
483.366
78.3662
0.00366582
0.00368362
0.00369497
0.00369918
0.00369568
0.00368413
0.00366398
735.802
2012.6
3762.25
5957.99
8561.61
11505.9
14710.9
18102.8
21582.4
25046.9
28398
31547.4
34420.7
36960.1
39126.6
40900.4
42279.4
43276.5
43916.4
44232.4
44262.7
44047.8
43628.3
43042.3
42324.8
41505.9
40612.2
39665.5
38681.3
37676.8
36666.8
35663.1
34674.5
33707.6
32767.6
31858.9
30985.2
30149.5
29354.1
28600.7
27890.4
27223.7
26600.5
26019.9
25480.5
24980.3
24514.9
24081.2
23676
23295.9
22937.9
22599
22276.4
21967.5
21669.8
21381.3
21100.2
20825
20554.9
20288.9
20026.5
19767.4
19511.5
19258.7
19009
18762.5
18519.5
18280
18044.2
17812.2
17584.4
854.152
823.315
749.647
640.774
489.347
303.342
13.2216
0.00358877
0.00360766
0.00362328
0.00363489
0.003642
0.00364434
0.00364079
336.391
1106.43
2202.81
3600.76
5278.25
7199.89
9311.14
11562.9
13902.6
16266.1
18589.4
20814.4
22891.2
24779.6
26450.7
27885.9
29077.3
30026.2
30741.6
31238.2
31534.6
31652
31612.5
31438.3
31150.9
30770.5
30314.6
29799.4
29239.6
28648.6
28038
27417.6
26796.3
26181
25577.5
24990.1
24422.5
23877.3
23356.6
22861.2
22391.5
21947.7
21529.3
21135.3
20764.3
20414.3
20083.3
19769
19469.2
19181.6
18904
18634.4
18371.2
18112.8
17858.1
17606.2
17356.4
17108.1
16861.2
16615.5
16370.9
16127.6
15885.7
15645.3
15406.6
15170
562.217
610.221
653.77
686.166
701.949
698.188
663.918
601.843
522.444
417.993
288.029
111.831
0.00352898
0.00354562
0.00356117
0.00357497
0.0035865
0.00359553
0.00360145
69.1592
468.419
1086.61
1890.41
2866
3995.27
5250.36
6598.23
8007.06
9448.03
10887.4
12291.2
13629.4
14877.1
16015.4
17031.2
17917.3
18671.4
19295.5
19795.5
20179.8
20458.9
20644.1
20746.9
20778.9
20751
20673.4
20554.9
20403.4
20226.2
20029.3
19817.9
19596.1
19367.5
19135.2
18901.6
18668.8
18438.6
18212.2
17990.7
17774.4
17563.7
17358.3
17157.8
16961.4
16768.3
16577.5
16388.1
16199
16009.4
15818.6
15625.9
15431
15233.5
15033.3
14830.5
14625
14417
14206.9
13994.8
13781.3
331.152
352.483
378.658
409.372
443.876
480.676
519.402
552.521
576.741
589.258
587.755
568.032
527.444
471.596
401.228
312.801
209.3
77.3088
0.00350408
0.00351598
0.00352762
0.0035386
0.00354853
0.00355746
0.0035642
119.748
401.429
798.207
1289.92
1865.31
2512.3
3215.19
3958.75
4726.07
5503.32
6278.74
7039.68
7774.26
8472.79
9128.28
9736.31
10294.9
10803.8
11264.5
11679.5
12051.9
12384.9
12681.8
12945.6
13179.1
13384.6
13564.1
13719.5
13852.2
13963.5
14054.8
14127.3
14182.4
14221.4
14245.6
14256.3
14254.7
14241.8
14218.5
14185.5
14143.1
14091.8
14031.7
13962.7
13885
13798.6
13703.3
13599.4
13486.9
13366.1
13237
13100.1
12955.8
12804.6
12647.1
224.404
232.106
240.977
251.542
264.393
280.037
299.187
321.987
347.978
376.447
406.352
436.844
465.207
486.926
500.099
503.125
495.161
474.151
439.628
395.69
341.531
277.078
203.286
126.12
32.4757
0.003501
0.00350834
0.00351571
0.00352283
0.00352975
7.30514
108.869
270.557
482.426
737.444
1028.68
1350.82
1698.83
2067.37
2450.86
2844.59
3246.37
3655.12
4068.98
4485.56
4902.56
5318.17
5730.92
6139.53