/*--------------------------------*- C++ -*----------------------------------*\
  =========                 |
  \\      /  F ield         | OpenFOAM: The Open Source CFD Toolbox
   \\    /   O peration     | Website:  https://openfoam.org
    \\  /    A nd           | Version:  13
     \\/     M anipulation  |
\*---------------------------------------------------------------------------*/
FoamFile
{
    format      ascii;
    class       volScalarField;
    location    "190";
    object      p;
}
// * * * * * * * * * * * * * * * * * * * * * * * * * * * * * * * * * * * * * //

dimensions      [0 2 -2 0 0 0 0];

internalField   nonuniform List<scalar> 
26820
(
0.823564
0.831969
0.850932
0.87764
0.909602
0.946148
0.986643
0.823138
0.831539
0.850447
0.877092
0.908962
0.945377
0.985689
0.822344
0.830701
0.849519
0.876044
0.907725
0.943885
0.983805
0.82116
0.829435
0.848125
0.874469
0.905862
0.941635
0.980954
0.819589
0.827752
0.846282
0.872383
0.903392
0.938647
0.977164
0.817637
0.825666
0.843998
0.869799
0.900325
0.934934
0.972444
0.815312
0.823187
0.841287
0.866727
0.896675
0.93051
0.96681
0.812623
0.820327
0.838163
0.863184
0.89246
0.925393
0.960282
0.80958
0.817103
0.834643
0.859188
0.887699
0.919603
0.952882
0.806196
0.813529
0.830745
0.854757
0.882413
0.913161
0.944635
0.802481
0.809623
0.826489
0.849911
0.876625
0.906091
0.93557
0.798451
0.805404
0.821897
0.844673
0.87036
0.898415
0.925717
0.79412
0.800891
0.816989
0.839063
0.863644
0.890158
0.915112
0.789502
0.796106
0.811789
0.833107
0.856505
0.881342
0.903797
0.784614
0.791068
0.80632
0.826827
0.848971
0.871991
0.89182
0.779472
0.7858
0.800602
0.820247
0.841072
0.862131
0.879242
0.774092
0.780321
0.794654
0.813386
0.832826
0.851781
0.866134
0.768495
0.77466
0.788503
0.806263
0.824239
0.84094
0.852534
0.762694
0.768863
0.782233
0.799005
0.81545
0.829723
0.838571
0.75668
0.762912
0.775877
0.791785
0.806827
0.818737
0.825027
1.03387
1.08956
1.15249
1.22309
1.30154
1.38844
1.48465
1.59107
1.70865
1.83843
1.98161
2.13946
2.31341
2.50499
2.71586
2.9478
3.20273
3.48266
3.78971
4.12607
4.49393
4.8955
5.33284
5.80783
6.322
6.87636
7.47116
8.10564
8.7777
9.48348
10.2169
10.9693
11.7286
12.4792
13.2009
13.8694
14.4552
14.9249
15.2497
15.4348
1.03271
1.08835
1.1512
1.22167
1.29997
1.3867
1.48272
1.58893
1.70625
1.83575
1.9786
2.13608
2.3096
2.50068
2.71099
2.94228
3.19646
3.47554
3.7816
4.11681
4.48335
4.88338
5.31895
5.79189
6.30369
6.8553
7.44693
8.07776
8.74563
9.44661
10.1746
10.9208
11.6731
12.4159
13.1292
13.7886
14.3654
14.8268
15.1431
15.3001
1.03043
1.08595
1.14864
1.21886
1.29686
1.38326
1.4789
1.58467
1.70149
1.83042
1.97262
2.12936
2.30203
2.49214
2.70133
2.93135
3.18407
3.46146
3.76557
4.09854
4.4625
4.85955
5.29167
5.76064
6.26784
6.81416
7.39969
8.02352
8.68337
9.3752
10.0928
10.8272
11.5664
12.2946
12.992
13.6342
14.193
14.6356
14.9321
15.0607
1.02701
1.08232
1.14477
1.21462
1.29217
1.37807
1.47314
1.57826
1.69434
1.82241
1.96363
2.11925
2.29065
2.47931
2.68683
2.91493
3.16544
3.44029
3.74149
4.07109
4.43117
4.82374
5.25068
5.71366
6.21397
6.75232
7.3287
7.94201
8.5898
9.26788
9.96984
10.6866
11.406
12.1122
12.7853
13.4012
13.9317
14.3435
14.6078
14.7065
1.0225
1.0775
1.13962
1.20899
1.28594
1.37117
1.4655
1.56974
1.68483
1.81176
1.95169
2.10583
2.27554
2.46226
2.66756
2.89312
3.14071
3.41221
3.70954
4.03469
4.38962
4.77625
5.19635
5.65142
6.1426
6.67043
7.2347
7.83411
8.46599
9.12591
9.80725
10.5007
11.194
11.871
12.512
13.0926
13.5848
13.9551
14.1754
14.2376
1.0169
1.07151
1.13322
1.20197
1.27818
1.36259
1.45597
1.55914
1.67299
1.79852
1.93683
2.08914
2.25674
2.44106
2.64361
2.86602
3.10999
3.37732
3.66986
3.98949
4.33806
4.71735
5.12897
5.57427
6.05417
6.56903
7.11836
7.70064
8.31291
8.95048
9.60644
10.2713
10.9323
11.5735
12.1748
12.7119
13.1566
13.4753
13.6403
13.6578
1.01024
1.06435
1.12556
1.19358
1.26892
1.35234
1.4446
1.54648
1.65885
1.7827
1.9191
2.06921
2.23432
2.41577
2.61505
2.8337
3.07337
3.33575
3.6226
3.93567
4.27669
4.64728
5.04886
5.48258
5.94914
6.44863
6.98031
7.54234
8.13146
8.74265
9.36867
9.99971
10.6229
11.2217
11.7762
12.2617
12.6502
12.9079
13.0068
12.9718
1.00254
1.05606
1.11667
1.18385
1.25817
1.34044
1.43141
1.53179
1.64245
1.76435
1.89853
2.04611
2.20832
2.38647
2.58197
2.79629
3.03098
3.28766
3.56794
3.87347
4.20579
4.56635
4.95639
5.3768
5.82804
6.3099
6.82134
7.36016
7.92277
8.50375
9.09553
9.68792
10.2677
10.8182
11.319
11.7455
12.0694
12.2572
12.2798
12.1851
0.993811
1.04664
1.10658
1.17279
1.24595
1.32694
1.41642
1.51511
1.62384
1.74353
1.8752
2.01991
2.17885
2.35326
2.54448
2.7539
2.98298
3.23322
3.50611
3.80313
4.12567
4.47496
4.85202
5.25748
5.69152
6.15362
6.64236
7.15521
7.68814
8.23536
8.78886
9.33807
9.8694
10.3658
10.8067
11.1673
11.4188
11.5284
11.4654
11.3045
0.984091
1.03614
1.0953
1.16044
1.23231
1.31185
1.39969
1.49649
1.60306
1.72029
1.84916
1.99068
2.14598
2.31623
2.5027
2.70669
2.92955
3.17265
3.43735
3.72496
4.03667
4.37351
4.73624
5.12522
5.54031
5.98064
6.44443
6.92871
7.42906
7.93921
8.45074
8.95262
9.43086
9.86808
10.2433
10.5315
10.7037
10.7277
10.5707
10.3381
0.973407
1.02458
1.08288
1.14681
1.21727
1.29521
1.38124
1.47596
1.58016
1.6947
1.82049
1.95851
2.10981
2.27551
2.45678
2.65482
2.87088
3.10618
3.36193
3.63926
3.93918
4.26246
4.6096
4.98067
5.37518
5.7919
6.22864
6.68201
7.14711
7.61721
8.08341
8.53421
8.95518
9.32855
9.63297
9.84326
9.92988
9.86181
9.60336
9.29461
0.961788
1.01199
1.06934
1.13195
1.20086
1.27708
1.36113
1.45359
1.55521
1.66682
1.78927
1.92349
2.07046
2.23122
2.40686
2.59846
2.80716
3.03403
3.28014
3.5464
3.83361
4.1423
4.47269
4.82453
5.19698
5.58842
5.99622
6.41655
6.84402
7.27141
7.6893
8.08571
8.44574
8.75121
8.98036
9.10787
9.1035
8.93784
8.57163
8.18367
0.949265
0.998399
1.05471
1.11589
1.18313
1.25749
1.33941
1.42943
1.52828
1.63673
1.75559
1.88572
2.02804
2.1835
2.3531
2.53781
2.73862
2.95649
3.19228
3.44673
3.7204
4.01357
4.32615
4.65757
5.00662
5.37127
5.74846
6.13387
6.52162
6.90397
7.27098
7.61017
7.90613
8.14028
8.29041
8.33111
8.23125
7.96353
7.48444
7.01561
0.935867
0.983843
1.03904
1.09866
1.16412
1.23648
1.31613
1.40354
1.49942
1.6045
1.71953
1.8453
1.98267
2.1325
2.29566
2.47305
2.66551
2.87383
3.0987
3.34066
3.60003
3.87682
4.17063
4.48057
4.80504
5.14159
5.48671
5.83559
6.18184
6.51719
6.83118
7.11079
7.34014
7.5002
7.56832
7.51904
7.32019
6.94705
6.35121
5.80139
0.921615
0.968361
1.02235
1.0803
1.14386
1.21412
1.29134
1.37599
1.46872
1.57023
1.6812
1.80236
1.93449
2.07836
2.23474
2.40441
2.58806
2.78634
2.99974
3.2286
3.47298
3.73263
4.00685
4.29438
4.59324
4.90056
5.21238
5.52339
5.82668
6.11346
6.37272
6.59093
6.7517
6.83561
6.81951
6.67801
6.37767
5.89695
5.18184
4.55254
0.906514
0.951998
1.0047
1.06085
1.12241
1.19045
1.26511
1.34683
1.43625
1.534
1.64069
1.75701
1.88363
2.02124
2.17052
2.3321
2.50655
2.69433
2.89577
3.11097
3.33976
3.58161
3.83551
4.09984
4.37224
4.64941
4.92693
5.199
5.4582
5.69521
5.89849
6.05401
6.14487
6.15128
6.04957
5.81454
5.4113
4.82205
3.98656
3.28102
0.890542
0.93482
0.986123
1.04033
1.09982
1.16553
1.23749
1.31615
1.4021
1.4959
1.59813
1.70937
1.83024
1.96133
2.10319
2.25635
2.42123
2.59811
2.78715
2.98821
3.2009
3.42439
3.65735
3.89784
4.14308
4.38938
4.63184
4.8642
5.07851
5.26495
5.41146
5.50353
5.52377
5.45205
5.26419
4.9353
4.42881
3.73139
2.77592
1.99916
0.873611
0.916931
0.96663
1.01878
1.07615
1.13941
1.20856
1.28402
1.36635
1.45604
1.55361
1.65957
1.77447
1.89878
2.03296
2.1774
2.33238
2.49802
2.67427
2.86079
3.05693
3.26159
3.47314
3.68927
3.90685
4.12174
4.32863
4.52077
4.68973
4.8252
4.91462
4.94302
4.89257
4.74284
4.46912
4.04701
3.43803
2.63413
1.56062
0.719515
0.855487
0.898505
0.946221
0.996235
1.05145
1.11216
1.17837
1.25052
1.32908
1.41451
1.50725
1.60775
1.71646
1.83378
1.96004
2.0955
2.24029
2.39438
2.55752
2.72916
2.9084
3.09387
3.28363
3.47504
3.66459
3.84777
4.0188
4.1705
4.29399
4.37848
4.41095
4.37601
4.25542
4.02852
3.67009
3.15639
2.44678
1.53942
0.351401
-0.545223
0.836211
0.879589
0.92489
0.97278
1.02579
1.08384
1.14701
1.21572
1.29039
1.37141
1.45917
1.55404
1.65639
1.76651
1.88462
2.01087
2.14524
2.28753
2.4373
2.59379
2.75585
2.92187
3.08959
3.25605
3.4174
3.56872
3.70385
3.81518
3.8934
3.92728
3.9034
3.80599
3.61642
3.31394
2.87275
2.27005
1.46275
0.456234
-0.841195
-1.78239
0.817953
0.859796
0.902346
0.948483
0.999223
1.0545
1.11454
1.17972
1.25038
1.32686
1.4095
1.49859
1.5944
1.69715
1.80694
1.92379
2.04753
2.17781
2.314
2.45513
2.59984
2.74623
2.89178
3.03321
3.16632
3.28586
3.38528
3.45657
3.49004
3.47407
3.39487
3.23637
2.97961
2.6038
2.08262
1.39446
0.493416
-0.606682
-2.00701
-2.97954
0.801087
0.838371
0.878767
0.923435
0.971801
1.0242
1.08104
1.14258
1.20913
1.28096
1.35835
1.44152
1.53067
1.62589
1.72721
1.83449
1.94745
2.06556
2.18802
2.31367
2.44091
2.56759
2.69095
2.80739
2.91241
3.00042
3.06453
3.09638
3.08592
3.02122
2.88816
2.67045
2.34885
1.90267
1.30503
0.535814
-0.454049
-1.64096
-3.13707
-4.12432
0.783478
0.816287
0.854705
0.897725
0.943567
0.99303
1.04659
1.10441
1.16674
1.23382
1.30585
1.38299
1.46535
1.55293
1.64564
1.74324
1.84529
1.95112
2.05976
2.16985
2.27959
2.3866
2.48784
2.57946
2.65668
2.7136
2.74301
2.73626
2.68301
2.57103
2.38598
2.11141
1.72787
1.21489
0.545036
-0.299968
-1.37288
-2.63863
-4.22141
-5.20806
0.764427
0.793837
0.830361
0.8714
0.914588
0.961057
1.01126
1.06528
1.12331
1.18555
1.25213
1.32314
1.39861
1.47845
1.56245
1.65027
1.74134
1.83483
1.92961
2.02414
2.11642
2.20385
2.28317
2.35028
2.40013
2.42655
2.42209
2.37782
2.28315
2.12569
1.89088
1.56224
1.12016
0.544569
-0.192587
-1.10733
-2.25666
-3.59267
-5.24802
-6.22495
0.744252
0.771079
0.805667
0.844476
0.884935
0.92836
0.975143
1.02528
1.07894
1.13626
1.19731
1.26212
1.33061
1.40263
1.47787
1.55585
1.63589
1.71702
1.79795
1.87698
1.95191
2.01996
2.07765
2.12065
2.1437
2.14039
2.10304
2.02255
1.88813
1.68725
1.40527
1.02574
0.529
-0.10449
-0.903428
-1.88116
-3.09934
-4.49899
-6.20421
-7.16661
0.72334
0.748016
0.780567
0.81699
0.854674
0.89501
0.938308
0.984506
1.03373
1.08607
1.14153
1.20006
1.26153
1.32567
1.3921
1.46021
1.52922
1.59801
1.66516
1.7288
1.78657
1.83551
1.87194
1.89136
1.88829
1.85615
1.7871
1.67187
1.49957
1.25761
0.93135
0.504485
-0.0426361
-0.728815
-1.58345
-2.61691
-3.8945
-5.35102
-7.0835
-8.02356
0.701895
0.724613
0.755074
0.789008
0.823874
0.861075
0.900835
0.94304
0.987776
1.03508
1.0849
1.13712
1.19152
1.24776
1.30535
1.36361
1.4216
1.47813
1.5316
1.58002
1.62088
1.65105
1.66669
1.66314
1.63476
1.57484
1.4754
1.32709
1.11898
0.838533
0.471142
0.000800193
-0.592065
-1.32531
-2.229
-3.31059
-4.6376
-6.13745
-7.88318
-8.78886
0.680017
0.700862
0.729228
0.760593
0.792597
0.826626
0.862802
0.900972
0.941183
0.983418
1.02756
1.07344
1.12075
1.16908
1.21784
1.26627
1.31332
1.35768
1.39763
1.43106
1.45531
1.46712
1.46251
1.43669
1.38392
1.29736
1.16898
0.989413
0.74775
0.431571
0.0264321
-0.483266
-1.11694
-1.89129
-2.83694
-3.95869
-5.32477
-6.8521
-8.59864
-9.45747
0.657775
0.676799
0.703073
0.731802
0.760907
0.791731
0.824287
0.858391
0.894048
0.931185
0.969635
1.00915
1.04937
1.0898
1.12978
1.16843
1.20464
1.23696
1.26359
1.28229
1.29029
1.28421
1.25997
1.21267
1.13649
1.02455
0.8688
0.659912
0.387084
0.0381065
-0.401221
-0.945957
-1.61526
-2.42453
-3.40459
-4.5581
-5.95141
-7.49373
-9.22436
-10.026
0.635233
0.652474
0.676646
0.702688
0.728869
0.756462
0.78537
0.815385
0.84647
0.878496
0.911241
0.944398
0.977543
1.01011
1.04135
1.07032
1.0958
1.11626
1.1298
1.13408
1.12624
1.10279
1.05959
0.991668
0.893152
0.757168
0.575704
0.33954
0.0380465
-0.340679
-0.810508
-1.38582
-2.08541
-2.92326
-3.92987
-5.10652
-6.51533
-8.06078
-9.75573
-10.4928
0.612449
0.627935
0.649987
0.673302
0.696546
0.720887
0.746128
0.772041
0.798545
0.825458
0.852505
0.879324
0.905426
0.930177
0.952765
0.972157
0.98706
0.995863
0.996581
0.98679
0.963547
0.923316
0.861877
0.774234
0.654518
0.495893
0.290442
0.029119
-0.298463
-0.70381
-1.20037
-1.80173
-2.52616
-3.38625
-4.4114
-5.60251
-7.01569
-8.55111
-10.1897
-10.8583
0.589477
0.603222
0.623136
0.643698
0.664
0.685076
0.706638
0.728447
0.750372
0.772179
0.793548
0.814059
0.833166
0.850172
0.864199
0.874146
0.878647
0.876022
0.864216
0.840737
0.802585
0.746178
0.667269
0.560864
0.421128
0.241316
0.0136554
-0.270662
-0.621713
-1.05052
-1.57001
-2.19289
-2.93668
-3.81272
-4.84863
-6.04556
-7.45195
-8.96335
-10.5251
-11.1249
0.566364
0.57838
0.596138
0.61393
0.631295
0.649098
0.666978
0.684687
0.702045
0.718767
0.734487
0.748735
0.76091
0.770258
0.775838
0.77649
0.770788
0.75699
0.732984
0.696228
0.643685
0.571749
0.476174
0.351997
0.193458
-0.00605569
-0.254121
-0.559248
-0.931135
-1.38024
-1.91889
-2.55884
-3.31657
-4.20239
-5.24159
-6.43587
-7.82423
-9.29723
-10.7626
-11.2963
0.543157
0.553455
0.569039
0.584051
0.598492
0.613018
0.627224
0.640847
0.653657
0.665325
0.675439
0.683482
0.688802
0.690591
0.687856
0.679385
0.663696
0.639
0.603142
0.553547
0.487156
0.400364
0.28895
0.148017
-0.0280879
-0.245802
-0.51246
-0.836216
-1.22633
-1.69264
-2.24673
-2.89938
-3.66581
-4.55542
-5.59094
-6.77435
-8.13348
-9.55357
-10.9045
-11.3778
0.5199
0.528492
0.541885
0.554113
0.565653
0.576905
0.587451
0.597009
0.605303
0.611955
0.616517
0.618424
0.616978
0.611324
0.600422
0.583012
0.557572
0.522273
0.474931
0.412953
0.333277
0.23232
0.105915
-0.0507459
-0.243172
-0.477584
-0.761034
-1.10129
-1.50708
-1.98756
-2.55344
-3.21457
-3.98475
-4.8725
-5.89788
-7.06257
-8.38157
-9.73431
-10.9554
-11.3761
0.49664
0.503534
0.514722
0.524166
0.532837
0.540822
0.547733
0.553255
0.55707
0.558757
0.55783
0.553681
0.545571
0.532601
0.513692
0.487545
0.452603
0.407012
0.348569
0.274679
0.182297
0.0678799
-0.0726633
-0.244019
-0.451528
-0.701174
-0.999657
-1.3543
-1.77324
-2.26493
-2.8392
-3.50485
-4.27414
-5.15475
-6.16415
-7.30272
-8.57142
-9.84272
-10.9224
-11.299
0.473421
0.478619
0.487601
0.494263
0.500108
0.504835
0.508146
0.509667
0.50905
0.50583
0.499488
0.489374
0.474712
0.454567
0.427824
0.393152
0.348973
0.293412
0.224265
0.138947
0.0344452
-0.0927231
-0.246556
-0.431594
-0.652963
-0.916366
-1.22813
-1.5951
-2.02482
-2.52499
-3.10443
-3.77091
-4.535
-5.40365
-6.39191
-7.49756
-8.707
-9.88365
-10.8149
-11.1556
0.450289
0.453778
0.460566
0.464447
0.46752
0.468999
0.468756
0.466315
0.461322
0.45326
0.441585
0.425605
0.404513
0.377341
0.342945
0.299972
0.246826
0.181627
0.102176
0.0059114
-0.110128
-0.249342
-0.415609
-0.613298
-0.847304
-1.12304
-1.44642
-1.82381
-2.26209
-2.76817
-3.34981
-4.01368
-4.76866
-5.62103
-6.58371
-7.65049
-8.79364
-9.86409
-10.6456
-10.9565
0.427319
0.429047
0.433689
0.434778
0.435155
0.433395
0.429659
0.4233
0.413999
0.401172
0.384258
0.362523
0.335137
0.301098
0.259244
0.208203
0.146372
0.0718765
-0.0174639
-0.12417
-0.251139
-0.401674
-0.579521
-0.788863
-1.03434
-1.32105
-1.65449
-2.04047
-2.48522
-2.99482
-3.57595
-4.23412
-4.97656
-5.80878
-6.74176
-7.76505
-8.83709
-9.79247
-10.4292
-10.7137
0.404516
0.404414
0.406982
0.405258
0.403021
0.398027
0.390863
0.380626
0.367086
0.349564
0.327502
0.300119
0.266565
0.225815
0.176691
0.117812
0.047573
-0.0358851
-0.134715
-0.251388
-0.388723
-0.549912
-0.738551
-0.958619
-1.2145
-1.51091
-1.85295
-2.24586
-2.69517
-3.20613
-3.78437
-4.43415
-5.16098
-5.96952
-6.86925
-7.84736
-8.84637
-9.68271
-10.1857
-10.4416
0.745218
0.7506
0.761299
0.77382
0.784481
0.790489
0.790258
0.726849
0.730597
0.737603
0.744911
0.749429
0.74889
0.74244
0.705671
0.707713
0.711183
0.713733
0.712987
0.707211
0.696024
0.681658
0.682126
0.68241
0.680806
0.675708
0.665936
0.651777
0.654931
0.654035
0.651591
0.646576
0.638173
0.625738
0.610062
0.625745
0.623748
0.619154
0.611597
0.600981
0.587095
0.571024
0.594493
0.591701
0.5856
0.576398
0.56458
0.550255
0.534638
0.561689
0.558418
0.551454
0.541446
0.529298
0.515327
0.500749
0.527936
0.52448
0.517235
0.50714
0.495355
0.482309
0.469139
0.493875
0.490478
0.483428
0.473809
0.462885
0.451123
0.439537
0.460135
0.456981
0.450471
0.441715
0.431965
0.421678
0.411729
0.427288
0.424491
0.418734
0.411063
0.402635
0.393868
0.385495
0.395811
0.393423
0.388514
0.382011
0.374931
0.367635
0.360732
0.366063
0.364089
0.360031
0.35467
0.348864
0.342914
0.337315
0.338286
0.336698
0.333431
0.329119
0.324463
0.319706
0.315245
0.312605
0.311356
0.308781
0.305383
0.301716
0.29797
0.294463
0.289053
0.288089
0.286098
0.283468
0.280629
0.277727
0.275013
0.267582
0.266849
0.265331
0.263321
0.26115
0.258926
0.256846
0.248097
0.247546
0.246404
0.244889
0.24325
0.241566
0.239991
0.23046
0.230049
0.229195
0.228061
0.226832
0.225565
0.224381
0.214524
0.21422
0.213588
0.212747
0.211833
0.210888
0.210005
0.200126
0.199902
0.199434
0.198811
0.198133
0.19743
0.196774
0.187119
0.186955
0.186611
0.186152
0.185652
0.185132
0.184646
0.175349
0.175228
0.174974
0.174635
0.174266
0.17388
0.173521
0.164692
0.164603
0.164417
0.164168
0.163896
0.163611
0.163346
0.155021
0.154955
0.154817
0.154632
0.154431
0.154219
0.154023
0.14624
0.146192
0.14609
0.145954
0.145805
0.145648
0.145504
0.138251
0.138214
0.138139
0.138037
0.137927
0.13781
0.137703
0.130983
0.130956
0.130901
0.130825
0.130743
0.130656
0.130577
0.12436
0.12434
0.124298
0.124242
0.12418
0.124115
0.124056
0.118335
0.11832
0.118288
0.118246
0.1182
0.118152
0.118107
0.112852
0.112841
0.112817
0.112785
0.11275
0.112713
0.112679
0.107893
0.107884
0.107866
0.107842
0.107815
0.107787
0.107761
0.103427
0.10342
0.103406
0.103388
0.103367
0.103345
0.103325
0.0994593
0.0994541
0.0994433
0.0994287
0.0994127
0.0993957
0.0993799
0.095987
0.0959828
0.0959742
0.0959626
0.09595
0.0959365
0.0959239
0.0930399
0.0930366
0.0930296
0.0930202
0.09301
0.0929991
0.0929889
0.0906579
0.0906551
0.0906492
0.0906414
0.0906328
0.0906238
0.0906152
0.0889221
0.0889197
0.0889146
0.0889078
0.0889003
0.0888925
0.0888849
0.0879553
0.0879531
0.0879484
0.0879422
0.0879352
0.0879281
0.0879211
0.782292
0.761852
0.740097
0.721284
0.703011
0.683838
0.664015
0.643999
0.623903
0.60369
0.583355
0.562934
0.542466
0.521976
0.501489
0.481028
0.460617
0.440284
0.420054
0.399959
0.732326
0.709695
0.687105
0.669505
0.653158
0.635901
0.61812
0.60045
0.582956
0.5655
0.548034
0.530591
0.513201
0.495874
0.478618
0.46144
0.444347
0.427344
0.410418
0.393581
0.683712
0.663663
0.644015
0.628791
0.614571
0.599432
0.58381
0.568333
0.553059
0.537847
0.52266
0.507532
0.492493
0.47755
0.462703
0.447957
0.43332
0.418803
0.404415
0.390177
0.638189
0.620654
0.603311
0.589483
0.576538
0.562954
0.54908
0.535426
0.522034
0.50878
0.495619
0.482569
0.469645
0.456839
0.444143
0.431547
0.419046
0.406632
0.394288
0.382024
0.596068
0.580978
0.565985
0.553798
0.54243
0.530658
0.518711
0.506977
0.495488
0.484144
0.472902
0.461775
0.450773
0.439892
0.429127
0.418473
0.40793
0.397498
0.387172
0.376961
0.557335
0.544494
0.531647
0.520962
0.510971
0.500715
0.490347
0.480164
0.470199
0.460376
0.450661
0.44106
0.431579
0.422212
0.412951
0.403787
0.394716
0.385731
0.376821
0.367996
0.521771
0.510934
0.500005
0.490722
0.482026
0.473183
0.464287
0.45556
0.447034
0.438651
0.430381
0.422226
0.414191
0.406271
0.398457
0.390745
0.38313
0.375609
0.36817
0.360822
0.489012
0.479905
0.47064
0.462614
0.455079
0.447469
0.439836
0.432346
0.425025
0.41783
0.410736
0.403744
0.396854
0.390062
0.383363
0.37675
0.370219
0.363766
0.357384
0.351082
0.45871
0.451079
0.443254
0.436366
0.429889
0.423386
0.416885
0.410507
0.404277
0.398163
0.392147
0.386227
0.380404
0.374676
0.369036
0.36348
0.358003
0.352604
0.347272
0.342015
0.430458
0.424065
0.41746
0.411574
0.406029
0.400486
0.394954
0.389524
0.384219
0.379014
0.373894
0.368858
0.363905
0.359032
0.354237
0.349514
0.344861
0.340276
0.335752
0.331297
0.403987
0.398644
0.393088
0.388096
0.383393
0.378706
0.374035
0.369452
0.364977
0.36059
0.356281
0.352048
0.34789
0.343805
0.339791
0.335843
0.33196
0.328139
0.324374
0.32067
0.378999
0.374532
0.369862
0.365646
0.361674
0.357724
0.353789
0.349928
0.346157
0.342463
0.338835
0.335272
0.331775
0.328341
0.324969
0.321655
0.318398
0.315197
0.312047
0.308954
0.35538
0.35166
0.347755
0.344226
0.340906
0.337608
0.334325
0.331104
0.32796
0.324883
0.321864
0.318903
0.315998
0.31315
0.310357
0.307615
0.304925
0.302283
0.299688
0.297143
0.332964
0.329872
0.326614
0.323673
0.320913
0.318171
0.31544
0.312762
0.310149
0.307593
0.305087
0.30263
0.300223
0.297864
0.295553
0.293287
0.291066
0.28889
0.286755
0.284665
0.311766
0.309212
0.306513
0.304087
0.301815
0.299559
0.297311
0.295107
0.29296
0.290861
0.288805
0.286791
0.28482
0.282891
0.281004
0.279156
0.277348
0.275578
0.273845
0.272152
0.291711
0.289609
0.287382
0.285389
0.283529
0.281681
0.279839
0.278033
0.276275
0.274558
0.272878
0.271234
0.269627
0.268055
0.26652
0.26502
0.263554
0.262122
0.260723
0.259359
0.272866
0.271149
0.269326
0.267703
0.266195
0.264696
0.263201
0.261736
0.260312
0.258923
0.257565
0.256237
0.254941
0.253676
0.252442
0.251237
0.250063
0.248918
0.247802
0.246717
0.255184
0.253788
0.252301
0.250986
0.249767
0.248556
0.247348
0.246165
0.245015
0.243896
0.242803
0.241736
0.240695
0.239681
0.238694
0.237732
0.236797
0.235888
0.235003
0.234145
0.238718
0.237591
0.236387
0.235329
0.234353
0.233383
0.232414
0.231466
0.230547
0.229653
0.228781
0.22793
0.227103
0.226298
0.225516
0.224756
0.224018
0.223303
0.222609
0.221938
0.22341
0.222503
0.221532
0.220683
0.219903
0.219127
0.218353
0.217596
0.216863
0.216151
0.215458
0.214783
0.214127
0.213491
0.212874
0.212276
0.211697
0.211137
0.210597
0.210076
0.209271
0.208545
0.207765
0.207088
0.206468
0.205852
0.205237
0.204636
0.204056
0.203492
0.202945
0.202413
0.201897
0.201397
0.200914
0.200447
0.199996
0.199562
0.199144
0.198742
0.196218
0.195639
0.195014
0.194475
0.193983
0.193494
0.193006
0.19253
0.192071
0.191626
0.191194
0.190776
0.190371
0.189979
0.189602
0.189238
0.188889
0.188553
0.188231
0.187923
0.184228
0.183767
0.183269
0.18284
0.182451
0.182066
0.18168
0.181305
0.180943
0.180593
0.180254
0.179926
0.179609
0.179304
0.179011
0.178729
0.178459
0.178201
0.177954
0.17772
0.173205
0.172839
0.172442
0.172102
0.171795
0.17149
0.171186
0.17089
0.170605
0.17033
0.170064
0.169807
0.16956
0.169322
0.169094
0.168876
0.168668
0.16847
0.168281
0.168103
0.163107
0.162817
0.162503
0.162234
0.161991
0.161751
0.161512
0.161279
0.161055
0.16084
0.160632
0.160431
0.160238
0.160054
0.159878
0.159709
0.159549
0.159397
0.159253
0.159118
0.153843
0.153614
0.153364
0.153152
0.152961
0.152772
0.152583
0.1524
0.152224
0.152055
0.151893
0.151736
0.151586
0.151443
0.151306
0.151177
0.151054
0.150937
0.150828
0.150725
0.145367
0.145187
0.14499
0.144822
0.144672
0.144524
0.144376
0.144232
0.144095
0.143963
0.143836
0.143714
0.143597
0.143486
0.143381
0.143281
0.143186
0.143098
0.143014
0.142937
0.137599
0.137458
0.137303
0.137171
0.137053
0.136937
0.136821
0.136708
0.1366
0.136497
0.136398
0.136304
0.136213
0.136127
0.136046
0.135969
0.135896
0.135828
0.135765
0.135707
0.130498
0.130388
0.130266
0.130163
0.130071
0.12998
0.129889
0.129801
0.129718
0.129637
0.12956
0.129487
0.129417
0.129351
0.129288
0.129229
0.129173
0.129121
0.129073
0.129029
0.123996
0.12391
0.123815
0.123735
0.123663
0.123592
0.123521
0.123453
0.123388
0.123326
0.123266
0.123209
0.123155
0.123104
0.123055
0.12301
0.122967
0.122928
0.122891
0.122858
0.118061
0.117995
0.117922
0.117859
0.117803
0.117748
0.117694
0.117641
0.11759
0.117542
0.117496
0.117453
0.117411
0.117371
0.117334
0.117299
0.117267
0.117237
0.117209
0.117183
0.112644
0.112594
0.112538
0.112489
0.112446
0.112404
0.112362
0.112322
0.112283
0.112246
0.112211
0.112177
0.112145
0.112115
0.112086
0.11206
0.112035
0.112012
0.11199
0.111971
0.107733
0.107696
0.107653
0.107617
0.107584
0.107552
0.10752
0.107489
0.10746
0.107432
0.107405
0.107379
0.107355
0.107332
0.10731
0.10729
0.107271
0.107253
0.107237
0.107222
0.103304
0.103277
0.103245
0.103218
0.103193
0.103169
0.103145
0.103122
0.1031
0.103079
0.103059
0.10304
0.103021
0.103004
0.102987
0.102972
0.102958
0.102944
0.102932
0.10292
0.0993633
0.0993442
0.0993217
0.0993015
0.0992835
0.099266
0.0992486
0.0992317
0.0992154
0.0991999
0.0991849
0.0991706
0.099157
0.099144
0.0991317
0.0991201
0.0991092
0.0990989
0.0990894
0.0990806
0.095911
0.0958981
0.0958826
0.0958683
0.0958554
0.0958429
0.0958305
0.0958184
0.0958067
0.0957955
0.0957847
0.0957743
0.0957643
0.0957547
0.0957456
0.0957369
0.0957286
0.0957208
0.0957135
0.0957067
0.0929787
0.0929706
0.0929604
0.0929507
0.0929418
0.0929332
0.0929247
0.0929163
0.0929081
0.0929002
0.0928926
0.0928851
0.0928779
0.0928709
0.0928642
0.0928578
0.0928515
0.0928456
0.0928399
0.0928345
0.0906071
0.0906024
0.0905962
0.0905898
0.0905839
0.0905782
0.0905726
0.0905669
0.0905614
0.0905559
0.0905506
0.0905453
0.0905402
0.0905351
0.0905302
0.0905253
0.0905206
0.090516
0.0905114
0.090507
0.0888785
0.0888759
0.0888722
0.0888682
0.0888644
0.0888607
0.088857
0.0888532
0.0888494
0.0888457
0.0888419
0.0888381
0.0888344
0.0888306
0.0888269
0.0888231
0.0888194
0.0888156
0.0888119
0.0888082
0.0879159
0.0879138
0.0879114
0.0879087
0.087906
0.0879033
0.0879006
0.0878978
0.087895
0.0878921
0.0878892
0.0878862
0.0878832
0.0878801
0.087877
0.0878738
0.0878706
0.0878674
0.0878641
0.0878607
-10.1521
-9.85759
-9.55873
-9.26417
-8.97956
-8.70658
-8.44437
-8.19128
-7.94602
-7.70796
-7.47675
-7.252
-7.03312
-6.81934
-6.60992
-6.40425
-6.20188
-6.00243
-5.80555
-5.61087
-5.41802
-5.22665
-5.03648
-4.84726
-4.65881
-4.47099
-4.28368
-4.09679
-3.91032
-3.7243
-3.53883
-3.3541
-3.17037
-2.98799
-2.80737
-2.62902
-2.45353
-2.28158
-2.11389
-1.95122
-1.79438
-1.64413
-1.50119
-1.3662
-1.23967
-1.12198
-1.01331
-0.913685
-0.82296
-0.740822
-0.666823
-0.600413
-0.540968
-0.487826
-0.440313
-0.397774
-0.359591
-0.3252
-0.2941
-0.265848
-0.24006
-0.216405
-0.194606
-0.174428
-0.155677
-0.138192
-0.12184
-0.106513
-0.0921196
-0.0785886
-0.0658579
-0.0538752
-0.0425951
-0.031979
-0.021995
-0.0126144
-0.00381008
0.00444706
0.0121749
0.0194187
-9.93153
-9.67645
-9.41996
-9.16397
-8.90874
-8.65569
-8.40607
-8.1608
-7.9207
-7.68653
-7.45863
-7.23683
-7.02053
-6.80894
-6.60133
-6.39715
-6.196
-5.99758
-5.80157
-5.60763
-5.41541
-5.22458
-5.03485
-4.84601
-4.65789
-4.47035
-4.28327
-4.09659
-3.91028
-3.72441
-3.53907
-3.35445
-3.1708
-2.98849
-2.80794
-2.62963
-2.45418
-2.28225
-2.11457
-1.95191
-1.79506
-1.64479
-1.50182
-1.3668
-1.24023
-1.12248
-1.01376
-0.914083
-0.823303
-0.741111
-0.667061
-0.600602
-0.541113
-0.487931
-0.440383
-0.397814
-0.359606
-0.325195
-0.294078
-0.265812
-0.240014
-0.216352
-0.194547
-0.174366
-0.155613
-0.138128
-0.121777
-0.10645
-0.0920585
-0.0785295
-0.0658011
-0.0538208
-0.0425432
-0.0319298
-0.0219484
-0.0125704
-0.00376863
0.00448605
0.0122115
0.0194529
-9.54442
-9.3676
-9.17262
-8.96609
-8.7484
-8.52454
-8.29971
-8.07631
-7.85498
-7.63603
-7.41978
-7.20647
-6.99621
-6.78896
-6.58461
-6.38303
-6.18407
-5.98754
-5.79315
-5.6006
-5.40956
-5.21972
-5.03083
-4.84271
-4.6552
-4.46817
-4.28154
-4.09525
-3.90928
-3.72368
-3.53859
-3.35417
-3.1707
-2.98854
-2.80812
-2.62991
-2.45454
-2.28268
-2.11505
-1.95242
-1.79559
-1.64532
-1.50235
-1.36731
-1.24071
-1.12294
-1.01417
-0.914452
-0.823624
-0.741383
-0.667284
-0.600777
-0.541244
-0.488022
-0.440439
-0.397838
-0.359604
-0.325171
-0.294036
-0.265757
-0.239948
-0.216279
-0.194468
-0.174284
-0.15553
-0.138044
-0.121694
-0.106369
-0.0919797
-0.0784535
-0.0657281
-0.0537511
-0.042477
-0.031867
-0.021889
-0.0125144
-0.00371593
0.00453555
0.0122579
0.0194964
-8.81859
-8.73626
-8.63636
-8.52369
-8.39085
-8.2382
-8.07107
-7.89356
-7.70817
-7.51724
-7.32314
-7.12774
-6.93227
-6.73734
-6.54316
-6.34981
-6.15735
-5.96584
-5.77533
-5.58578
-5.39711
-5.20921
-5.02194
-4.83519
-4.64886
-4.46284
-4.27707
-4.09151
-3.90616
-3.72111
-3.53648
-3.35246
-3.16933
-2.98747
-2.80729
-2.6293
-2.45411
-2.2824
-2.1149
-1.95237
-1.79563
-1.64543
-1.50251
-1.36751
-1.24093
-1.12316
-1.0144
-0.914663
-0.823816
-0.74155
-0.667422
-0.600885
-0.541321
-0.488069
-0.440458
-0.397832
-0.359576
-0.325124
-0.293975
-0.265683
-0.239865
-0.21619
-0.194375
-0.174189
-0.155434
-0.137949
-0.1216
-0.106278
-0.0918916
-0.0783688
-0.0656472
-0.053674
-0.0424038
-0.0317978
-0.0218238
-0.012453
-0.00365824
0.00458967
0.0123086
0.0195439
-7.88698
-7.87799
-7.85501
-7.82097
-7.76795
-7.69375
-7.6017
-7.4945
-7.37341
-7.23969
-7.09486
-6.94092
-6.77972
-6.61276
-6.44123
-6.26622
-6.08867
-5.90938
-5.72893
-5.54769
-5.36584
-5.1835
-5.00072
-4.81759
-4.63418
-4.45053
-4.2667
-4.08274
-3.89875
-3.71483
-3.53117
-3.34799
-3.16559
-2.98435
-2.80472
-2.6272
-2.45241
-2.28105
-2.11384
-1.95157
-1.79504
-1.64503
-1.50226
-1.36737
-1.24089
-1.12319
-1.01447
-0.914766
-0.82393
-0.741662
-0.667522
-0.600966
-0.541378
-0.488101
-0.440464
-0.397814
-0.359535
-0.325065
-0.2939
-0.265596
-0.239769
-0.216086
-0.194268
-0.174079
-0.155324
-0.13784
-0.121494
-0.106174
-0.0917918
-0.0782732
-0.065556
-0.0535874
-0.0423218
-0.0317204
-0.0217508
-0.0123845
-0.003594
0.00464983
0.0123649
0.0195965
-6.95125
-6.99145
-7.01813
-7.03182
-7.03015
-7.01171
-6.97575
-6.92444
-6.85953
-6.78145
-6.69029
-6.58717
-6.47354
-6.35037
-6.2184
-6.07835
-5.93101
-5.77758
-5.61906
-5.45622
-5.2897
-5.12006
-4.94782
-4.77345
-4.59736
-4.41981
-4.24106
-4.06133
-3.88083
-3.69981
-3.51858
-3.33743
-3.15674
-2.97695
-2.79854
-2.6221
-2.44825
-2.2777
-2.11118
-1.9495
-1.79347
-1.64388
-1.50145
-1.36684
-1.24059
-1.12306
-1.01447
-0.914844
-0.824057
-0.741811
-0.667671
-0.601099
-0.541486
-0.488177
-0.440506
-0.397822
-0.359513
-0.325016
-0.293828
-0.265507
-0.239665
-0.215973
-0.194148
-0.173955
-0.155199
-0.137716
-0.121371
-0.106056
-0.0916772
-0.0781633
-0.0654512
-0.053488
-0.0422279
-0.0316318
-0.0216676
-0.0123064
-0.00352093
0.00471811
0.0124286
0.019656
-6.08169
-6.15223
-6.21228
-6.2603
-6.29285
-6.30954
-6.31172
-6.2999
-6.2744
-6.23681
-6.18771
-6.12602
-6.05255
-5.96872
-5.87533
-5.77232
-5.65991
-5.53924
-5.41122
-5.27635
-5.13509
-4.9878
-4.83505
-4.67765
-4.51623
-4.3513
-4.18329
-4.01267
-3.83986
-3.66537
-3.4897
-3.31329
-3.13664
-2.96027
-2.78478
-2.61079
-2.43902
-2.27025
-2.10528
-1.94494
-1.79004
-1.64137
-1.49969
-1.36569
-1.23992
-1.12275
-1.01442
-0.914978
-0.824301
-0.74211
-0.667982
-0.601391
-0.541739
-0.488379