/*--------------------------------*- C++ -*----------------------------------*\
  =========                 |
  \\      /  F ield         | OpenFOAM: The Open Source CFD Toolbox
   \\    /   O peration     | Website:  https://openfoam.org
    \\  /    A nd           | Version:  13
     \\/     M anipulation  |
\*---------------------------------------------------------------------------*/
FoamFile
{
    format      ascii;
    class       surfaceScalarField;
    location    "190";
    object      phi;
}
// * * * * * * * * * * * * * * * * * * * * * * * * * * * * * * * * * * * * * //

dimensions      [0 3 -1 0 0 0 0];

internalField   nonuniform List<scalar> 
53213
(
0.000404894
-8.73718e-06
0.000412455
-7.56081e-06
0.000418983
-6.52798e-06
0.000424604
-5.62109e-06
0.000429424
-4.82075e-06
0.000433544
-4.12005e-06
-3.4845e-06
0.000437029
0.000404759
-1.73392e-05
0.000412196
-1.49985e-05
0.000418617
-1.29483e-05
0.000424143
-1.11475e-05
0.000428879
-9.5572e-06
0.000432925
-8.1655e-06
-6.90138e-06
0.000436342
0.000404484
-2.56668e-05
0.000411679
-2.21933e-05
0.000417884
-1.9153e-05
0.000423219
-1.64829e-05
0.000427786
-1.41243e-05
0.000431682
-1.20611e-05
-1.01848e-05
0.000434965
0.000404073
-3.35835e-05
0.000410904
-2.90238e-05
0.000416785
-2.50346e-05
0.000421834
-2.15319e-05
0.000426148
-1.84376e-05
0.000429819
-1.57321e-05
-1.32687e-05
0.000432903
0.000403527
-4.09535e-05
0.000409872
-3.53693e-05
0.000415324
-3.04861e-05
0.000419992
-2.61999e-05
0.000423967
-2.24131e-05
0.000427339
-1.91042e-05
-1.60872e-05
0.000430158
0.000402845
-4.76416e-05
0.000408585
-4.11099e-05
0.000413501
-3.54015e-05
0.000417693
-3.03927e-05
0.000421248
-2.59673e-05
0.000424247
-2.21039e-05
-1.8575e-05
0.000426735
0.000402029
-5.35139e-05
0.000407046
-4.61268e-05
0.00041132
-3.96753e-05
0.000414944
-3.40171e-05
0.000417994
-2.90176e-05
0.000420548
-2.46579e-05
-2.06672e-05
0.00042264
0.00040108
-5.84376e-05
0.000405256
-5.03021e-05
0.000408784
-4.32033e-05
0.000411747
-3.69804e-05
0.000414212
-3.14821e-05
0.000416247
-2.66938e-05
-2.22995e-05
0.00041788
0.0004
-6.22814e-05
0.000403218
-5.35196e-05
0.000405897
-4.58823e-05
0.000408108
-3.91915e-05
0.000409906
-3.32798e-05
0.000411352
-2.81402e-05
-2.34084e-05
0.000412461
0.000398791
-6.49159e-05
0.000400936
-5.56644e-05
0.000402664
-4.76106e-05
0.000404033
-4.05601e-05
0.000405084
-3.4331e-05
0.00040587
-2.89263e-05
-2.39313e-05
0.000406393
0.000397454
-6.62133e-05
0.000398413
-5.66232e-05
0.00039909
-4.8288e-05
0.000399527
-4.09974e-05
0.000399753
-3.4557e-05
0.00039981
-2.89826e-05
-2.38065e-05
0.000399685
0.000395991
-6.6048e-05
0.000395653
-5.62847e-05
0.000395181
-4.7816e-05
0.000394599
-4.04159e-05
0.000393923
-3.38805e-05
0.000393181
-2.82404e-05
-2.29733e-05
0.000392347
0.000394405
-6.42966e-05
0.00039266
-5.45398e-05
0.000390942
-4.60977e-05
0.000389256
-3.87298e-05
0.000387601
-3.22258e-05
0.000385993
-2.66324e-05
-2.13726e-05
0.000384393
0.000392698
-6.08384e-05
0.00038944
-5.12814e-05
0.000386381
-4.30384e-05
0.000383506
-3.58551e-05
0.000380799
-2.95187e-05
0.000378259
-2.40923e-05
-1.89465e-05
0.000375833
0.000390873
-5.5555e-05
0.000385997
-4.6405e-05
0.000381504
-3.85456e-05
0.000377358
-3.17097e-05
0.000373526
-2.56868e-05
0.000369989
-2.0555e-05
-1.5639e-05
0.000366682
0.000388933
-4.83311e-05
0.000382336
-3.98084e-05
0.000376319
-3.25287e-05
0.000370823
-2.62132e-05
0.000365795
-2.06593e-05
0.000361197
-1.59566e-05
-1.13966e-05
0.000356954
0.00038688
-3.90543e-05
0.000378464
-3.13924e-05
0.000370835
-2.48997e-05
0.000363909
-1.92875e-05
0.000357617
-1.43671e-05
0.000351895
-1.02341e-05
-6.16852e-06
0.000346667
0.000384718
-2.76155e-05
0.000374386
-2.10608e-05
0.00036506
-1.55734e-05
0.00035663
-1.08575e-05
0.000349006
-6.74354e-06
0.000342098
-3.32598e-06
9.35405e-08
0.000335836
0.000382449
-1.39084e-05
0.000370108
-8.71951e-06
0.000359001
-4.46641e-06
0.000348994
-8.50366e-07
0.000339976
2.27477e-06
0.000331825
4.82448e-06
7.43313e-06
0.000324486
0.000380078
2.16994e-06
0.000365632
5.72719e-06
0.000352653
8.5119e-06
0.000340984
1.08187e-05
0.000330492
1.27665e-05
0.000321032
1.42852e-05
0.000312619
1.58457e-05
0.000396231
4.07981e-05
0.000359213
3.70177e-05
0.000325631
3.35824e-05
0.000295166
3.04643e-05
0.000267531
2.76357e-05
0.000242461
2.50699e-05
0.000219718
2.2743e-05
0.000199085
2.06329e-05
0.000180365
1.87197e-05
0.00016338
1.69854e-05
0.000147966
1.54134e-05
0.000133978
1.39889e-05
0.000121279
1.26981e-05
0.00010975
1.15289e-05
9.92805e-05
1.04699e-05
8.97694e-05
9.51118e-06
8.1126e-05
8.6434e-06
7.32677e-05
7.85827e-06
6.61195e-05
7.14825e-06
5.9613e-05
6.50649e-06
5.36862e-05
5.92679e-06
4.82826e-05
5.40354e-06
4.3351e-05
4.93164e-06
3.88445e-05
4.50646e-06
3.47207e-05
4.12382e-06
3.09408e-05
3.77989e-06
2.74697e-05
3.47118e-06
2.42751e-05
3.19451e-06
2.13282e-05
2.94695e-06
1.86024e-05
2.7258e-06
1.60738e-05
2.52855e-06
1.3721e-05
2.35281e-06
1.15247e-05
2.19631e-06
9.46792e-06
2.0568e-06
7.53604e-06
1.93188e-06
5.71723e-06
1.81881e-06
4.00343e-06
1.7138e-06
2.39491e-06
1.60852e-06
9.49241e-07
1.44567e-06
9.49241e-07
0.000395608
8.15314e-05
0.000358648
7.39778e-05
0.000325118
6.71128e-05
0.000294701
6.08815e-05
0.000267108
5.52286e-05
0.000242077
5.01011e-05
0.000219369
4.54508e-05
0.000198768
4.12338e-05
0.000180077
3.74105e-05
0.000163118
3.39446e-05
0.000147728
3.08031e-05
0.000133761
2.79561e-05
0.000121083
2.53766e-05
0.000109572
2.30399e-05
9.91181e-05
2.09236e-05
8.96218e-05
1.90075e-05
8.09919e-05
1.72732e-05
7.31461e-05
1.57041e-05
6.60092e-05
1.42851e-05
5.95131e-05
1.30025e-05
5.35959e-05
1.1844e-05
4.82012e-05
1.07982e-05
4.32778e-05
9.85504e-06
3.87791e-05
9.00525e-06
3.46624e-05
8.24045e-06
3.08893e-05
7.55298e-06
2.74246e-05
6.9359e-06
2.42363e-05
6.38283e-06
2.12953e-05
5.88793e-06
1.85753e-05
5.44578e-06
1.60525e-05
5.05136e-06
1.37054e-05
4.69995e-06
1.15147e-05
4.38702e-06
9.46334e-06
4.10812e-06
7.53654e-06
3.85868e-06
5.72161e-06
3.63374e-06
4.00819e-06
3.42723e-06
2.39117e-06
3.22554e-06
9.26838e-07
2.91e-06
1.87608e-06
0.000394359
0.000122137
0.000357515
0.000110822
0.000324089
0.000100539
0.000293766
9.12041e-05
0.000266259
8.27359e-05
0.000241305
7.50547e-05
0.000218668
6.80883e-05
0.000198131
6.17711e-05
0.000179498
5.60435e-05
0.000162591
5.08512e-05
0.000147249
4.61451e-05
0.000133325
4.18801e-05
0.000120686
3.80158e-05
0.00010921
3.45152e-05
9.8789e-05
3.13448e-05
8.93222e-05
2.84744e-05
8.07192e-05
2.58762e-05
7.28977e-05
2.35256e-05
6.57831e-05
2.13997e-05
5.93075e-05
1.94782e-05
5.34089e-05
1.77425e-05
4.80314e-05
1.61757e-05
4.31238e-05
1.47627e-05
3.86396e-05
1.34895e-05
3.45365e-05
1.23436e-05
3.0776e-05
1.13135e-05
2.73231e-05
1.03888e-05
2.41459e-05
9.55999e-06
2.12156e-05
8.81827e-06
1.85058e-05
8.15554e-06
1.59929e-05
7.56428e-06
1.36554e-05
7.03742e-06
1.14742e-05
6.56821e-06
9.43224e-06
6.15011e-06
7.51439e-06
5.77654e-06
5.70747e-06
5.44066e-06
3.99993e-06
5.13476e-06
2.38571e-06
4.83976e-06
9.23143e-07
4.37257e-06
2.79922e-06
0.000392487
0.000162553
0.000355815
0.000147494
0.000322545
0.000133808
0.000292364
0.000121385
0.000264985
0.000110115
0.000240148
9.9892e-05
0.000217616
9.06203e-05
0.000197174
8.22127e-05
0.000178628
7.45897e-05
0.0001618
6.76793e-05
0.000146529
6.14157e-05
0.00013267
5.57394e-05
0.000120089
5.05963e-05
0.000108667
4.59372e-05
9.82947e-05
4.17176e-05
8.8872e-05
3.78971e-05
8.03091e-05
3.44391e-05
7.25242e-05
3.13105e-05
6.5443e-05
2.8481e-05
5.89977e-05
2.59235e-05
5.3127e-05
2.36132e-05
4.77749e-05
2.15278e-05
4.28907e-05
1.96469e-05
3.84281e-05
1.79521e-05
3.43449e-05
1.64267e-05
3.06029e-05
1.50555e-05
2.71673e-05
1.38244e-05
2.40063e-05
1.27209e-05
2.10913e-05
1.17333e-05
1.8396e-05
1.08508e-05
1.5897e-05
1.00633e-05
1.3573e-05
9.36147e-06
1.14048e-05
8.73641e-06
9.37539e-06
8.17952e-06
7.46962e-06
7.68231e-06
5.67403e-06
7.23625e-06
3.97672e-06
6.83207e-06
2.3718e-06
6.44467e-06
9.17273e-07
5.8271e-06
3.71649e-06
0.000389994
0.000202717
0.000353552
0.000183937
0.00032049
0.00016687
0.000290498
0.000151378
0.000263289
0.000137323
0.000238607
0.000124574
0.000216215
0.000113012
0.000195901
0.000102527
0.00017747
9.30206e-05
0.000160746
8.44027e-05
0.000145571
7.65914e-05
0.000131798
6.95125e-05
0.000119295
6.30985e-05
0.000107945
5.72881e-05
9.76363e-05
5.20257e-05
8.82723e-05
4.72612e-05
7.97628e-05
4.29486e-05
7.20265e-05
3.90467e-05
6.49895e-05
3.5518e-05
5.85847e-05
3.23283e-05
5.2751e-05
2.9447e-05
4.74328e-05
2.6846e-05
4.25796e-05
2.45001e-05
3.81455e-05
2.23862e-05
3.40887e-05
2.04835e-05
3.03712e-05
1.8773e-05
2.69583e-05
1.72373e-05
2.38187e-05
1.58606e-05
2.09236e-05
1.46283e-05
1.82474e-05
1.35271e-05
1.57664e-05
1.25443e-05
1.34596e-05
1.16683e-05
1.1308e-05
1.0888e-05
9.29452e-06
1.0193e-05
7.40409e-06
9.57274e-06
5.62316e-06
9.01718e-06
3.93967e-06
8.51557e-06
2.34801e-06
8.03633e-06
9.06503e-07
7.26861e-06
4.623e-06
0.000386887
0.000242565
0.00035073
0.000220094
0.000317927
0.000199672
0.00028817
0.000181136
0.000261174
0.000164318
0.000236685
0.000149064
0.000214468
0.000135229
0.000194312
0.000122683
0.000176025
0.000111308
0.000159432
0.000100996
0.000144375
9.16487e-05
0.00013071
8.31781e-05
0.000118305
7.55031e-05
0.000107043
6.85503e-05
9.6815e-05
6.22534e-05
8.75241e-05
5.6552e-05
7.90812e-05
5.13915e-05
7.14055e-05
4.67224e-05
6.44238e-05
4.24997e-05
5.80694e-05
3.86827e-05
5.22817e-05
3.52347e-05
4.70056e-05
3.2122e-05
4.21911e-05
2.93145e-05
3.77927e-05
2.67847e-05
3.37687e-05
2.45075e-05
3.00816e-05
2.24601e-05
2.6697e-05
2.06219e-05
2.35837e-05
1.89739e-05
2.07134e-05
1.74986e-05
1.80605e-05
1.618e-05
1.56017e-05
1.50031e-05
1.3316e-05
1.39539e-05
1.11847e-05
1.30194e-05
9.19065e-06
1.2187e-05
7.31889e-06
1.14445e-05
5.5559e-06
1.07802e-05
3.88953e-06
1.01819e-05
2.31466e-06
9.6112e-06
8.90786e-07
8.69249e-06
5.51378e-06
0.000383169
0.000282036
0.000347354
0.000255909
0.000314861
0.000232165
0.000285384
0.000210613
0.000258643
0.000191059
0.000234385
0.000173323
0.000212377
0.000157236
0.000192411
0.000142649
0.000174297
0.000129422
0.00015786
0.000117432
0.000142944
0.000106564
0.000129407
9.67151e-05
0.00011712
8.77909e-05
0.000105963
7.97066e-05
9.5832e-05
7.23847e-05
8.66287e-05
6.57553e-05
7.82654e-05
5.97548e-05
7.06623e-05
5.43255e-05
6.37467e-05
4.94153e-05
5.74525e-05
4.49769e-05
5.17199e-05
4.09673e-05
4.64943e-05
3.73477e-05
4.17261e-05
3.40828e-05
3.73701e-05
3.11406e-05
3.33854e-05
2.84922e-05
2.97346e-05
2.61109e-05
2.63837e-05
2.39728e-05
2.33019e-05
2.20557e-05
2.04612e-05
2.03393e-05
1.7836e-05
1.88051e-05
1.54036e-05
1.74356e-05
1.31429e-05
1.62146e-05
1.10355e-05
1.51269e-05
9.06441e-06
1.4158e-05
7.21468e-06
1.32942e-05
5.47291e-06
1.25219e-05
3.82696e-06
1.18279e-05
2.2723e-06
1.11659e-05
8.70232e-07
1.00946e-05
6.38402e-06
0.000378846
0.00032107
0.000343429
0.000291326
0.000311296
0.000264298
0.000282146
0.000239763
0.000255701
0.000217504
0.000231711
0.000197313
0.000209946
0.000179
0.000190201
0.000162394
0.000172286
0.000147337
0.000156031
0.000133687
0.000141281
0.000121315
0.000127893
0.000110103
0.000115741
9.9943e-05
0.000104708
9.07395e-05
9.46889e-05
8.2404e-05
8.55874e-05
7.48568e-05
7.73168e-05
6.80254e-05
6.9798e-05
6.18443e-05
6.29592e-05
5.62541e-05
5.67352e-05
5.12009e-05
5.10666e-05
4.66358e-05
4.58996e-05
4.25147e-05
4.11851e-05
3.87972e-05
3.68786e-05
3.54472e-05
3.29394e-05
3.24313e-05
2.93308e-05
2.97196e-05
2.60191e-05
2.72845e-05
2.29738e-05
2.5101e-05
2.01672e-05
2.31459e-05
1.75743e-05
2.1398e-05
1.51723e-05
1.98376e-05
1.29406e-05
1.84462e-05
1.08608e-05
1.72067e-05
8.91622e-06
1.61027e-05
7.09193e-06
1.51185e-05
5.37467e-06
1.42392e-05
3.75243e-06
1.34501e-05
2.22131e-06
1.2697e-05
8.45013e-07
1.14708e-05
7.22903e-06
0.000373926
0.000359604
0.000338961
0.000326292
0.000307238
0.00029602
0.000278459
0.000268542
0.000252351
0.000243612
0.000228666
0.000220998
0.000207179
0.000200488
0.000187685
0.000181888
0.000169998
0.000165024
0.00015395
0.000149736
0.000139387
0.000135878
0.000126169
0.00012332
0.000114172
0.000111941
0.000103279
0.000101632
9.33875e-05
9.22958e-05
8.4402e-05
8.38423e-05
7.62368e-05
7.61906e-05
6.8814e-05
6.92672e-05
6.20626e-05
6.30055e-05
5.59183e-05
5.73452e-05
5.03227e-05
5.22315e-05
4.52224e-05
4.7615e-05
4.05691e-05
4.34505e-05
3.63188e-05
3.96975e-05
3.24315e-05
3.63186e-05
2.88708e-05
3.32803e-05
2.56035e-05
3.05517e-05
2.25998e-05
2.81047e-05
1.98321e-05
2.59136e-05
1.72758e-05
2.39543e-05
1.49083e-05
2.2205e-05
1.27095e-05
2.06451e-05
1.0661e-05
1.92552e-05
8.74638e-06
1.80172e-05
6.95093e-06
1.6914e-05
5.26151e-06
1.59286e-05
3.66621e-06
1.50454e-05
2.16195e-06
1.42012e-05
8.15348e-07
1.28175e-05
8.04438e-06
0.000368416
0.000397581
0.000333957
0.000360752
0.000302693
0.000327284
0.000274331
0.000296905
0.0002486
0.000269343
0.000225257
0.000244341
0.00020408
0.000221665
0.000184867
0.000201101
0.000167435
0.000182456
0.000151618
0.000165553
0.000137265
0.000150231
0.000124239
0.000136346
0.000112414
0.000123765
0.000101679
0.000112367
9.19299e-05
0.000102045
8.30741e-05
9.2698e-05
7.5027e-05
8.42377e-05
6.77117e-05
7.65825e-05
6.10583e-05
6.96589e-05
5.50033e-05
6.34001e-05
4.94893e-05
5.77456e-05
4.44637e-05
5.26406e-05
3.98788e-05
4.80354e-05
3.56915e-05
4.38848e-05
3.18622e-05
4.01479e-05
2.83551e-05
3.67873e-05
2.51377e-05
3.37691e-05
2.21804e-05
3.10621e-05
1.94562e-05
2.86378e-05
1.69407e-05
2.64698e-05
1.46119e-05
2.45338e-05
1.24497e-05
2.28072e-05
1.04362e-05
2.12687e-05
8.55512e-06
1.98983e-05
6.7919e-06
1.86772e-05
5.1336e-06
1.75869e-05
3.56848e-06
1.66106e-05
2.09441e-06
1.56753e-05
7.81405e-07
1.41305e-05
8.82578e-06
0.000362325
0.00043494
0.000328425
0.000394652
0.000297669
0.00035804
0.000269766
0.000324808
0.000244452
0.000294657
0.000221487
0.000267306
0.000200653
0.000242499
0.000181751
0.000220003
0.000164602
0.000199605
0.000149041
0.000181114
0.00013492
0.000164352
0.000122104
0.000149162
0.000110471
0.000135398
9.99092e-05
0.000122929
9.03182e-05
0.000111636
8.1606e-05
0.00010141
7.36894e-05
9.21543e-05
6.64929e-05
8.37791e-05
5.99477e-05
7.62041e-05
5.39915e-05
6.93562e-05
4.85677e-05
6.31694e-05
4.36246e-05
5.75837e-05
3.91154e-05
5.25445e-05
3.49976e-05
4.80026e-05
3.12325e-05
4.39131e-05
2.77847e-05
4.02351e-05
2.46223e-05
3.69315e-05
2.17162e-05
3.39682e-05
1.90399e-05
3.1314e-05
1.65695e-05
2.89402e-05
1.42833e-05
2.68201e-05
1.21616e-05
2.49289e-05
1.01867e-05
2.32436e-05
8.34261e-06
2.17424e-05
6.61498e-06
2.04048e-05
4.99107e-06
1.92108e-05
3.45933e-06
1.81423e-05
2.01874e-06
1.71159e-05
7.43281e-07
1.54059e-05
9.56906e-06
0.000355663
0.000471625
0.000322375
0.00042794
0.000292173
0.000388242
0.000264773
0.000352208
0.000239915
0.000319515
0.000217364
0.000289857
0.000196905
0.000262958
0.000178343
0.000238564
0.000161502
0.000216446
0.000146221
0.000196395
0.000132354
0.000178219
0.000119769
0.000161747
0.000108345
0.000146822
9.79733e-05
0.000133301
8.85549e-05
0.000121054
7.99997e-05
0.000109965
7.22259e-05
9.99281e-05
6.51594e-05
9.08456e-05
5.87326e-05
8.26308e-05
5.28845e-05
7.52044e-05
4.75592e-05
6.84947e-05
4.27064e-05
6.24365e-05
3.828e-05
5.69709e-05
3.42382e-05
5.20444e-05
3.05431e-05
4.76082e-05
2.71601e-05
4.36181e-05
2.40578e-05
4.00338e-05
2.12077e-05
3.68183e-05
1.85838e-05
3.39379e-05
1.61627e-05
3.13613e-05
1.3923e-05
2.90597e-05
1.18455e-05
2.70064e-05
9.9127e-06
2.51764e-05
8.10901e-06
2.35461e-05
6.42026e-06
2.20935e-05
4.83395e-06
2.07972e-05
3.33876e-06
1.96375e-05
1.93497e-06
1.85197e-05
7.01005e-07
1.66399e-05
1.02701e-05
0.000348439
0.000507578
0.000315814
0.000460565
0.000286214
0.000417842
0.000259359
0.000379063
0.000234996
0.000343878
0.000212893
0.000311961
0.00019284
0.000283011
0.000174647
0.000256757
0.00015814
0.000232953
0.000143163
0.000211372
0.000129571
0.000191811
0.000117236
0.000174082
0.000106039
0.000158019
9.58739e-05
0.000143466
8.66428e-05
0.000130285
7.82578e-05
0.00011835
7.06388e-05
0.000107547
6.37132e-05
9.77713e-05
5.74148e-05
8.89292e-05
5.16838e-05
8.09355e-05
4.64655e-05
7.37129e-05
4.17105e-05
6.71915e-05
3.73738e-05
6.13077e-05
3.34144e-05
5.60038e-05
2.97952e-05
5.12274e-05
2.64823e-05
4.6931e-05
2.34451e-05
4.3071e-05
2.06556e-05
3.96079e-05
1.80884e-05
3.6505e-05
1.57206e-05
3.37291e-05
1.35313e-05
3.12491e-05
1.15016e-05
2.90362e-05
9.6144e-06
2.70636e-05
7.85444e-06
2.53061e-05
6.20781e-06
2.37402e-05
4.66225e-06
2.23427e-05
3.20673e-06
2.1093e-05
1.84303e-06
1.98834e-05
6.54568e-07
1.78283e-05
1.09246e-05
0.000340666
0.000542744
0.000308755
0.000492477
0.000279802
0.000446795
0.000253533
0.000405331
0.000229702
0.00036771
0.000208081
0.000333582
0.000188465
0.000302626
0.000170669
0.000274553
0.000154523
0.000249099
0.000139872
0.000226023
0.000126577
0.000205106
0.00011451
0.000186149
0.000103558
0.000168971
9.36144e-05
0.00015341
8.45848e-05
0.000139315
7.6383e-05
0.000126552
6.89306e-05
0.000114999
6.21566e-05
0.000104545
5.59963e-05
9.50894e-05
5.03913e-05
8.65406e-05
4.5288e-05
7.88161e-05
4.06383e-05
7.18413e-05
3.6398e-05
6.55479e-05
3.25272e-05
5.98745e-05
2.89897e-05
5.4765e-05
2.57522e-05
5.01684e-05
2.2785e-05
4.60383e-05
2.00606e-05
4.23322e-05
1.75544e-05
3.90113e-05
1.52438e-05
3.60397e-05
1.31085e-05
3.33843e-05
1.11302e-05
3.10145e-05
9.29199e-06
2.89018e-05
7.57902e-06
2.7019e-05
5.97766e-06
2.53415e-05
4.47593e-06
2.38444e-05
3.06313e-06
2.25058e-05
1.74279e-06
2.12037e-05
6.03917e-07
1.89672e-05
1.15286e-05
0.000332356
0.000577069
0.000301207
0.000523626
0.000272946
0.000475056
0.000247304
0.000430972
0.000224041
0.000390974
0.000202935
0.000354687
0.000183788
0.000321774
0.000166416
0.000291925
0.000150654
0.000264861
0.000136353
0.000240325
0.000123375
0.000218084
0.000111596
0.000197927
0.000100905
0.000179663
9.11981e-05
0.000163116
8.2384e-05
0.000148129
7.43781e-05
0.000134558
6.71038e-05
0.000122274
6.04919e-05
0.000111157
5.44793e-05
0.000101102
4.90089e-05
9.2011e-05
4.40287e-05
8.37964e-05
3.94914e-05
7.63785e-05
3.53542e-05
6.96851e-05
3.15781e-05
6.36506e-05
2.81277e-05
5.82154e-05
2.49708e-05
5.33253e-05
2.20783e-05
4.89309e-05
1.94234e-05
4.49871e-05
1.69822e-05
4.14525e-05
1.47328e-05
3.82891e-05
1.26552e-05
3.54619e-05
1.07316e-05
3.29382e-05
8.94569e-06
3.06877e-05
7.28286e-06
2.86819e-05
5.72983e-06
2.68945e-05
4.27491e-06
2.52994e-05
2.90782e-06
2.38729e-05
1.63409e-06
2.24775e-05
5.4898e-07
2.00523e-05
1.20775e-05
0.000323522
0.000610502
0.000293183
0.000553964
0.000265657
0.000502582
0.000240681
0.000455948
0.000218022
0.000413633
0.000197465
0.000375244
0.000178815
0.000340424
0.000161894
0.000308846
0.000146541
0.000280214
0.000132611
0.000254255
0.00011997
0.000230725
0.000108497
0.0002094
9.80832e-05
0.000190076
8.8629e-05
0.00017257
8.00439e-05
0.000156714
7.22462e-05
0.000142356
6.51612e-05
0.000129359
5.87217e-05
0.000117597
5.28661e-05
0.000106958
4.75388e-05
9.73383e-05
4.26892e-05
8.8646e-05
3.82715e-05
8.07963e-05
3.42438e-05
7.37128e-05
3.05683e-05
6.73261e-05
2.72105e-05
6.15732e-05
2.41392e-05
5.63966e-05
2.13259e-05
5.17441e-05
1.87449e-05
4.75681e-05
1.63727e-05
4.38247e-05
1.41881e-05
4.04738e-05
1.21717e-05
3.74782e-05
1.03062e-05
3.48037e-05
8.57571e-06
3.24181e-05
6.96606e-06
3.02915e-05
5.46432e-06
2.83963e-05
4.05909e-06
2.67046e-05
2.74057e-06
2.51914e-05
1.5167e-06
2.37013e-05
4.89638e-07
2.10794e-05
1.25672e-05
0.000314177
0.000642992
0.000284696
0.000583445
0.000257947
0.000529331
0.000233675
0.000480219
0.000211655
0.000435653
0.000191678
0.000395221
0.000173553
0.000358548
0.00015711
0.00032529
0.00014219
0.000295133
0.000128652
0.000267793
0.000116368
0.00024301
0.000105218
0.000220549
9.50983e-05
0.000200196
8.59108e-05
0.000181758
7.75681e-05
0.000165057
6.99905e-05
0.000149934
6.31059e-05
0.000136243
5.68486e-05
0.000123854
5.1159e-05
0.000112647
4.59831e-05
0.000102514
4.12718e-05
9.33573e-05
3.69804e-05
8.50877e-05
3.30685e-05
7.76247e-05
2.94993e-05
7.08953e-05
2.62394e-05
6.4833e-05
2.32585e-05
5.93775e-05
2.0529e-05
5.44736e-05
1.80259e-05
5.00712e-05
1.57265e-05
4.61241e-05
1.36103e-05
4.259e-05
1.16585e-05
3.943e-05
9.85426e-06
3.66079e-05
8.18226e-06
3.40901e-05
6.62872e-06
3.18451e-05
5.18108e-06
2.98439e-05
3.82831e-06
2.80574e-05
2.56117e-06
2.64585e-05
1.39033e-06
2.48722e-05
4.25756e-07
2.2044e-05
1.29929e-05
0.000304335
0.000674494
0.000275758
0.000612022
0.000249827
0.000555263
0.000226297
0.000503749
0.00020495
0.000457001
0.000185583
0.000414588
0.000168012
0.000376119
0.000152071
0.000341231
0.000137607
0.000309597
0.000124483
0.000280917
0.000112574
0.000254919
0.000101765
0.000231358
9.19544e-05
0.000210007
8.30478e-05
0.000190664
7.49602e-05
0.000173144
6.76146e-05
0.000157279
6.09409e-05
0.000142917
5.48755e-05
0.000129919
4.93608e-05
0.000118162
4.43442e-05
0.000107531
3.97784e-05
9.79232e-05
3.562e-05
8.9246e-05
3.183e-05
8.14148e-05
2.83726e-05
7.43526e-05
2.52157e-05
6.799e-05
2.23299e-05
6.22634e-05
1.96884e-05
5.71151e-05
1.72673e-05
5.24923e-05
1.50444e-05
4.83469e-05
1.30001e-05
4.46344e-05
1.11161e-05
4.1314e-05
9.37619e-06
3.83478e-05
7.76557e-06
3.57008e-05
6.27093e-06
3.33397e-05
4.8801e-06
3.12348e-05
3.58243e-06
2.9355e-05
2.36933e-06
2.76716e-05
1.25467e-06
2.59868e-05
3.57158e-07
2.29415e-05
1.33501e-05
0.000294012
0.000704967
0.000266385
0.000639649
0.00024131
0.000580338
0.000218558
0.000526502
0.000197916
0.000477642
0.000179189
0.000433315
0.000162199
0.000393109
0.000146785
0.000356646
0.000132799
0.000323582
0.000120109
0.000293607
0.000108594
0.000266435
9.81426e-05
0.000241809
8.86563e-05
0.000219493
8.00444e-05
0.000199276
7.22245e-05
0.000180964
6.51221e-05
0.000164382
5.86696e-05
0.000149369
5.28055e-05
0.000135784
4.7474e-05
0.000123493
4.26246e-05
0.00011238
3.82113e-05
0.000102336
3.41924e-05
9.32649e-05
3.05301e-05
8.50771e-05
2.719e-05
7.76927e-05
2.41409e-05
7.1039e-05
2.13546e-05
6.50496e-05
1.88054e-05
5.96643e-05
1.647e-05
5.48277e-05
1.43273e-05
5.04896e-05
1.2358e-05
4.66036e-05
1.0545e-05
4.31271e-05
8.87233e-06
4.00204e-05
7.32587e-06
3.72472e-05
5.89277e-06
3.47728e-05
4.5613e-06
3.25662e-05
3.32123e-06
3.05951e-05
2.1647e-06
2.88282e-05
1.10937e-06
2.70422e-05
2.83632e-07
2.37672e-05
1.36337e-05
0.000283221
0.000734365
0.000256596
0.000666274
0.000232411
0.000604522
0.000210469
0.000548444
0.000190565
0.000497547
0.000172507
0.000451373
0.000156124
0.000409492
0.000141261
0.000371509
0.000127775
0.000337068
0.000115538
0.000305843
0.000104434
0.000277539
9.43564e-05
0.000251886
8.52092e-05
0.000228641
7.69052e-05
0.00020758
6.9365e-05
0.000188504
6.25168e-05
0.00017123
5.62955e-05
0.000155591
5.06417e-05
0.000141437
4.55017e-05
0.000128633
4.08269e-05
0.000117055
3.65729e-05
0.00010659
3.26996e-05
9.71382e-05
2.91707e-05
8.8606e-05
2.5953e-05
8.09104e-05
2.30165e-05
7.39755e-05
2.03341e-05
6.7732e-05
1.78811e-05
6.21173e-05
1.56351e-05
5.70737e-05
1.35759e-05
5.25489e-05
1.16849e-05
4.84946e-05
9.94571e-06
4.48663e-05
8.3431e-06
4.16231e-05
6.8634e-06
3.87269e-05
5.49435e-06
3.61419e-05
4.22463e-06
3.3836e-05
3.04448e-06
3.17753e-05
1.94694e-06
2.99257e-05
9.5402e-07
2.80351e-05
2.0488e-07
2.45164e-05
1.38386e-05
0.000271999
0.000762639
-0.000300273
0.000246388
0.000691885
0.00022314
0.00062777
0.000202045
0.000569539
0.000182908
0.000516684
0.000165547
0.000468735
0.000149796
0.000425242
0.000135506
0.000385799
0.000122541
0.000350034
0.000110776
0.000317608
0.000100101
0.000288215
9.04124e-05
0.000261575
8.16183e-05
0.000237435
7.3635e-05
0.000215564
6.63861e-05
0.000195753
5.98027e-05
0.000177813
5.38221e-05
0.000161571
4.83873e-05
0.000146872
4.34468e-05
0.000133574
3.89537e-05
0.000121548
3.48656e-05
0.000110679
3.1144e-05
0.00010086
2.77538e-05
9.19962e-05
2.46635e-05
8.40008e-05
2.18441e-05
7.67948e-05
1.92698e-05
7.03064e-05
1.69168e-05
6.44703e-05
1.47637e-05
5.92268e-05
1.27911e-05
5.45215e-05
1.09815e-05
5.03042e-05
9.31889e-06
4.65289e-05
7.78889e-06
4.31531e-05
6.37843e-06
4.01374e-05
5.07576e-06
3.74445e-05
3.87003e-06
3.50417e-05
2.75196e-06
3.28933e-05
1.71563e-06
3.0962e-05
7.88233e-07
2.89625e-05
1.20474e-07
2.51841e-05
1.39591e-05
0.000260328
0.000789728
-0.000287417
0.000235782
0.000716431
0.00021351
0.000650041
0.000193297
0.000589752
0.000174957
0.000535024
0.000158319
0.000485373
0.000143225
0.000440337
0.00012953
0.000399493
0.000117105
0.000362458
0.000105832
0.000328882
9.56011e-05
0.000298445
8.63165e-05
0.000270859
7.78893e-05
0.000245862
7.02389e-05
0.000223214
6.32925e-05
0.0002027
5.6984e-05
0.000184122
5.12533e-05
0.000167302
4.60459e-05
0.00015208
4.13124e-05
0.000138307
3.7008e-05
0.000125852
3.3092e-05
0.000114594
2.95277e-05
0.000104424
2.62816e-05
9.52423e-05
2.33233e-05
8.69591e-05
2.06254e-05
7.94927e-05
1.8163e-05
7.27688e-05
1.59136e-05
6.67197e-05
1.38568e-05
6.12837e-05
1.1974e-05
5.64043e-05
1.02484e-05
5.20297e-05
8.66509e-06
4.81123e-05
7.21017e-06
4.4608e-05
5.87122e-06
4.14763e-05
4.6371e-06
3.86787e-05
3.49742e-06
3.61814e-05
2.44342e-06
3.39473e-05
1.47041e-06
3.19351e-05
6.11783e-07
2.98211e-05
2.95039e-08
2.57664e-05
1.39886e-05
0.00024825
0.000815604
-0.000274125
0.000224799
0.000739882
0.000203536
0.000671304
0.000184238
0.00060905
0.000166724
0.000552538
0.000150835
0.000501262
0.00013642
0.000454751
0.000123343
0.000412571
0.000111477
0.000374324
0.000100711
0.000339648
9.09416e-05
0.000308215
8.20753e-05
0.000279726
7.40277e-05
0.000253909
6.67221e-05
0.00023052
6.00889e-05
0.000209333
5.4065e-05
0.000190146
4.8593e-05
0.000172774
4.36209e-05
0.000157052
3.91017e-05
0.000142827
3.49926e-05
0.000129962
3.12548e-05
0.000118332
2.78533e-05
0.000107826
2.47561e-05
9.83395e-05
2.19344e-05
8.97808e-05
1.93621e-05
8.2065e-05
1.70154e-05
7.51154e-05
1.48731e-05
6.8862e-05
1.29156e-05
6.32412e-05
1.11254e-05
5.81945e-05
9.48664e-06
5.36684e-05
7.98496e-06
4.9614e-05
6.60737e-06
4.59856e-05
5.34207e-06
4.27416e-05
4.17849e-06
3.98422e-05
3.10675e-06
3.72531e-05
2.11867e-06
3.49354e-05
1.21098e-06
3.28427e-05
4.23954e-07
3.06081e-05
-6.78842e-08
2.62582e-05
1.39207e-05
0.000235777
0.000840226
-0.000260398
0.00021346
0.000762198
0.000193235
0.000691529
0.000174881
0.000627404
0.000158222
0.000569198
0.000143106
0.000516378
0.000129393
0.000468464
0.000116952
0.000425012
0.000105665
0.000385611
9.54232e-05
0.000349889
8.61295e-05
0.000317508
7.76951e-05
0.00028816
7.00396e-05
0.000261565
6.30901e-05
0.000237469
5.67803e-05
0.000215643
5.10502e-05
0.000195876
4.58453e-05
0.000177979
4.11162e-05
0.000161781
3.68182e-05
0.000147125
3.29106e-05
0.000133869
2.93567e-05
0.000121886
2.61231e-05
0.000111059
2.31796e-05
0.000101283
2.04988e-05
9.24616e-05
1.80559e-05
8.45078e-05
1.58286e-05
7.73427e-05
1.37965e-05
7.08941e-05
1.19413e-05
6.50964e-05
1.02464e-05
5.98894e-05
8.69691e-06
5.5218e-05
7.27917e-06
5.10317e-05
5.98102e-06
4.72837e-05
4.79129e-06
4.39313e-05
3.70007e-06
4.09335e-05
2.69797e-06
3.82552e-05
1.77743e-06
3.58559e-05
9.37176e-07
3.3683e-05
2.23707e-07
3.13216e-05
-1.68999e-07
2.66509e-05
1.37517e-05
0.000222931
0.000863551
-0.000246256
0.000201784
0.000783345
0.000182625
0.000710689
0.000165241
0.000644788
0.000149462
0.000584976
0.000135144
0.000530696
0.000122154
0.000481454
0.000110369
0.000436796
9.96773e-05
0.000396303
8.99758e-05
0.000359591
8.11723e-05
0.000326312
7.31828e-05
0.00029615
6.59312e-05
0.000268817
5.93483e-05
0.000244052
5.33716e-05
0.000221619
4.79441e-05
0.000201303
4.30143e-05
0.000182909
3.85355e-05
0.00016626
3.44653e-05
0.000151195
3.07652e-05
0.000137569
2.74006e-05
0.000125251
2.43399e-05
0.00011412
2.15545e-05
0.000104068
1.90186e-05
9.49974e-05
1.67089e-05
8.68176e-05
1.46042e-05
7.94474e-05
1.26854e-05
7.2813e-05
1.09352e-05
6.68465e-05
9.33818e-06
6.14864e-05
7.88014e-06
5.6676e-05
6.54843e-06
5.23634e-05
5.3316e-06
4.85005e-05
4.21921e-06
4.50437e-05
3.20199e-06
4.19507e-05
2.27108e-06
3.91861e-05
1.41951e-06
3.67075e-05
6.49316e-07
3.44532e-05
9.35855e-09
3.19616e-05
-2.70775e-07
2.69311e-05
1.34809e-05
0.000209732
0.00088554
-0.000231721
0.000189788
0.000803288
0.000171721
0.000728756
0.000155334
0.000661175
0.00014046
0.00059985
0.000126962
0.000544195
0.000114715
0.000493701
0.000103604
0.000447907
9.35237e-05
0.000406383
8.43773e-05
0.000368737
7.60775e-05
0.000334612
6.85453e-05
0.000303682
6.17087e-05
0.000275653
5.55027e-05
0.000250258
4.98682e-05
0.000227254
4.47517e-05
0.00020642
4.01046e-05
0.000187556
3.58828e-05
0.000170481
3.20466e-05
0.000155031
2.85597e-05
0.000141056
2.53895e-05
0.000128421
2.25062e-05
0.000117003
1.98832e-05
0.000106691
1.7496e-05
9.73846e-05
1.53229e-05
8.89907e-05
1.33439e-05
8.14264e-05
1.15412e-05
7.46156e-05
9.89867e-06
6.84891e-05
8.40172e-06
6.29834e-05
7.03727e-06
5.80404e-05
5.79347e-06
5.36072e-05
4.65969e-06
4.96343e-05
3.62619e-06
4.60772e-05
2.6844e-06
4.28925e-05
1.82608e-06
4.00444e-05
1.04471e-06
3.74889e-05
3.46171e-07
3.51517e-05
-2.18907e-07
3.25266e-05
-3.7123e-07
2.70834e-05
1.31097e-05
0.000196197
0.00090616
-0.000216817
0.00017749
0.000821995
0.000160542
0.000745703
0.000145175
0.000676542
0.000131229
0.000613797
0.000118571
0.000556853
0.000107086
0.000505186
9.66667e-05
0.000458326
8.72136e-05
0.000415836
7.86364e-05
0.000377315
7.08532e-05
0.000342395
6.37897e-05
0.000310745
5.73787e-05
0.000282064
5.15591e-05
0.000256078
4.62755e-05
0.000232537
4.14778e-05
0.000211217
3.71204e-05
0.000191913
3.31622e-05
0.00017444
2.95658e-05
0.000158627
2.62973e-05
0.000144324
2.33263e-05
0.000131392
2.06249e-05
0.000119705
1.81681e-05
0.000109148
1.59332e-05
9.96194e-05
1.38999e-05
9.10241e-05
1.20495e-05
8.32768e-05
1.03655e-05
7.62996e-05
8.83296e-06
7.00217e-05
7.43825e-06
6.43781e-05
6.16927e-06
5.93094e-05
5.01507e-06
5.47614e-05
3.96585e-06
5.06835e-05
3.01262e-06
4.70305e-05
2.14748e-06
4.37576e-05
1.36294e-06
4.0829e-05
6.52967e-07
3.81988e-05
2.50033e-08
3.57797e-05
-4.57391e-07
3.3009e-05
-4.70207e-07
2.70962e-05
1.26395e-05
0.000182348
0.000925378
-0.000201566
0.000164907
0.000839437
0.000149105
0.000761505
0.000134781
0.000690867
0.000121783
0.000626795
0.000109985
0.00056865
9.92802e-05
0.000515891
8.95681e-05
0.000468039
8.07568e-05
0.000424648
7.2762e-05
0.000385309
6.55073e-05
0.00034965
5.89235e-05
0.000317329
5.29479e-05
0.00028804
4.75235e-05
0.000261502
4.2599e-05
0.000237462
3.81274e-05
0.000215689