/*--------------------------------*- C++ -*----------------------------------*\
  =========                 |
  \\      /  F ield         | OpenFOAM: The Open Source CFD Toolbox
   \\    /   O peration     | Website:  https://openfoam.org
    \\  /    A nd           | Version:  13
     \\/     M anipulation  |
\*---------------------------------------------------------------------------*/
FoamFile
{
    format      ascii;
    class       volScalarField;
    location    "190";
    object      ReThetat;
}
// * * * * * * * * * * * * * * * * * * * * * * * * * * * * * * * * * * * * * //

dimensions      [];

internalField   nonuniform List<scalar> 
26820
(
493.464
489.774
485.7
482.096
479.039
476.46
474.277
493.476
489.791
485.71
482.099
479.037
476.455
474.268
493.486
489.811
485.722
482.102
479.031
476.442
474.25
493.5
489.836
485.736
482.102
479.02
476.422
474.221
493.519
489.87
485.754
482.103
479.005
476.395
474.183
493.543
489.914
485.78
482.106
478.989
476.364
474.138
493.573
489.972
485.815
482.114
478.973
476.329
474.088
493.61
490.044
485.861
482.128
478.96
476.295
474.034
493.654
490.133
485.922
482.153
478.953
476.263
473.982
493.707
490.243
486
482.19
478.955
476.237
473.934
493.768
490.375
486.1
482.245
478.973
476.224
473.898
493.839
490.532
486.229
482.329
479.016
476.233
473.881
493.923
490.717
486.408
482.458
479.095
476.27
473.891
494.019
490.935
486.637
482.633
479.215
476.344
473.935
494.13
491.192
486.92
482.86
479.382
476.461
474.024
494.257
491.492
487.266
483.151
479.607
476.646
474.168
494.402
491.841
487.686
483.525
479.922
476.945
474.357
494.566
492.243
488.187
484.037
480.395
477.443
474.63
494.746
492.699
488.783
484.693
481.09
478.319
475.737
494.949
493.228
489.5
485.547
482.072
479.945
478.619
472.319
470.486
468.861
467.413
466.113
464.942
463.879
462.91
462.021
461.202
460.443
459.736
459.075
458.456
457.873
457.322
456.8
456.303
455.827
455.371
454.931
454.504
454.089
453.683
453.283
452.901
452.64
452.54
452.519
452.518
452.519
452.518
452.513
452.508
452.503
452.499
452.495
452.493
452.491
452.49
472.309
470.476
468.852
467.403
466.104
464.933
463.871
462.902
462.014
461.196
460.437
459.73
459.07
458.451
457.869
457.319
456.797
456.3
455.825
455.368
454.929
454.502
454.088
453.682
453.284
452.996
452.809
452.682
452.6
452.551
452.524
452.509
452.501
452.497
452.494
452.493
452.492
452.491
452.49
452.49
472.289
470.455
468.831
467.383
466.085
464.915
463.854
462.887
462
461.182
460.424
459.719
459.06
458.442
457.86
457.311
456.79
456.294
455.819
455.364
454.924
454.499
454.085
453.68
453.278
452.916
452.632
452.507
452.472
452.462
452.458
452.459
452.462
452.467
452.473
452.479
452.484
452.487
452.488
452.489
472.258
470.424
468.8
467.353
466.057
464.888
463.829
462.863
461.978
461.162
460.406
459.702
459.044
458.428
457.847
457.299
456.779
456.284
455.81
455.356
454.918
454.493
454.08
453.676
453.277
452.893
452.546
452.285
452.164
452.193
452.265
452.327
452.375
452.41
452.436
452.456
452.471
452.48
452.486
452.487
472.216
470.381
468.758
467.312
466.018
464.852
463.795
462.832
461.949
461.135
460.381
459.679
459.023
458.408
457.83
457.283
456.765
456.271
455.799
455.346
454.909
454.485
454.073
453.67
453.273
452.886
452.522
452.199
451.96
451.862
451.948
452.093
452.219
452.312
452.377
452.422
452.452
452.471
452.482
452.485
472.166
470.329
468.705
467.262
465.97
464.806
463.752
462.792
461.912
461.101
460.349
459.65
458.997
458.384
457.808
457.263
456.746
456.255
455.784
455.333
454.897
454.475
454.065
453.663
453.268
452.881
452.513
452.171
451.875
451.667
451.62
451.777
451.989
452.164
452.289
452.373
452.427
452.46
452.477
452.483
472.109
470.267
468.644
467.201
465.912
464.751
463.701
462.744
461.867
461.06
460.311
459.615
458.965
458.355
457.781
457.239
456.724
456.235
455.767
455.317
454.883
454.463
454.055
453.655
453.262
452.873
452.505
452.158
451.84
451.575
451.417
451.453
451.696
451.962
452.168
452.307
452.394
452.445
452.471
452.479
472.046
470.199
468.573
467.132
465.845
464.687
463.641
462.688
461.815
461.012
460.267
459.575
458.927
458.321
457.75
457.21
456.699
456.212
455.746
455.299
454.867
454.449
454.043
453.645
453.254
452.866
452.495
452.147
451.822
451.53
451.306
451.225
451.382
451.712
452.01
452.221
452.352
452.427
452.463
452.476
471.979
470.124
468.495
467.054
465.769
464.615
463.573
462.624
461.756
460.957
460.217
459.528
458.885
458.282
457.714
457.178
456.67
456.185
455.722
455.278
454.849
454.433
454.029
453.633
453.245
452.859
452.485
452.134
451.806
451.503
451.244
451.082
451.145
451.447
451.821
452.112
452.299
452.404
452.455
452.471
471.913
470.045
468.41
466.968
465.685
464.535
463.496
462.553
461.69
460.896
460.16
459.476
458.837
458.238
457.674
457.142
456.637
456.156
455.696
455.254
454.828
454.415
454.013
453.62
453.234
452.851
452.475
452.12
451.789
451.477
451.244
451.044
450.999
451.2
451.607
451.983
452.235
452.378
452.445
452.466
471.851
469.964
468.32
466.875
465.593
464.446
463.412
462.474
461.617
460.828
460.097
459.418
458.784
458.189
457.63
457.102
456.6
456.123
455.667
455.228
454.805
454.395
453.996
453.606
453.222
452.842
452.466
452.103
451.762
451.506
451.269
451.046
450.922
451.017
451.382
451.832
452.16
452.346
452.433
452.46
471.798
469.884
468.226
466.775
465.493
464.35
463.321
462.388
461.536
460.753
460.029
459.355
458.726
458.136
457.581
457.057
456.56
456.087
455.634
455.199
454.78
454.373
453.977
453.59
453.21
452.835
452.448
452.172
451.852
451.567
451.309
451.066
450.889
450.893
451.177
451.67
452.073
452.31
452.419
452.453
471.761
469.808
468.13
466.671
465.387
464.246
463.222
462.295
461.449
460.672
459.954
459.286
458.662
458.078
457.528
457.009
456.517
456.048
455.599
455.168
454.752
454.348
453.957
453.577
453.188
452.8
452.537
452.274
451.962
451.65
451.365
451.101
450.885
450.817
451.017
451.507
451.977
452.268
452.404
452.445
471.744
469.741
468.034
466.562
465.274
464.135
463.115
462.194
461.355
460.585
459.873
459.211
458.594
458.016
457.472
456.958
456.47
456.005
455.559
455.135
454.727
454.332
453.923
453.518
453.314
452.98
452.679
452.393
452.078
451.748
451.435
451.148
450.902
450.778
450.901
451.354
451.876
452.222
452.386
452.436
471.754
469.685
467.94
466.45
465.157
464.018
463.002
462.088
461.256
460.493
459.788
459.133
458.521
457.946
457.407
456.897
456.421
455.969
455.537
455.077
454.646
454.234
454.091
453.759
453.504
453.191
452.857
452.535
452.205
451.858
451.52
451.209
450.937
450.766
450.824
451.221
451.776
452.173
452.367
452.426
471.799
469.647
467.854
466.336
465.03
463.889
462.877
461.967
461.141
460.386
459.689
459.04
458.448
457.894
457.366
456.869
456.331
455.839
455.382
455.324
455.014
454.563
454.33
454.035
453.735
453.41
453.054
452.699
452.346
451.983
451.622
451.285
450.987
450.778
450.779
451.118
451.681
452.122
452.346
452.414
472.043
469.612
467.747
466.233
464.931
463.79
462.786
461.889
461.073
460.323
459.63
458.989
458.295
457.678
457.151
456.643
456.689
456.363
455.844
455.665
455.422
454.985
454.635
454.315
453.985
453.638
453.263
452.88
452.503
452.122
451.741
451.38
451.057
450.816
450.768
451.051
451.598
452.071
452.324
452.402
474.449
470.591
467.734
465.927
464.597
463.464
462.417
461.494
460.69
459.97
459.308
458.729
458.882
458.486
457.891
457.256
457.161
456.947
456.444
456.093
455.821
455.41
454.985
454.61
454.246
453.876
453.482
453.076
452.674
452.274
451.875
451.494
451.148
450.879
450.79
451.018
451.529
452.022
452.301
452.388
477.048
473.745
469.898
467.349
465.582
464.488
463.813
462.969
462.052
461.183
460.386
459.643
459.643
459.406
458.827
458.086
457.733
457.504
457.047
456.582
456.229
455.821
455.358
454.924
454.52
454.122
453.71
453.284
452.859
452.439
452.023
451.623
451.257
450.963
450.839
451.008
451.474
451.977
452.277
452.373
479.294
477.57
473.802
470.463
468.077
466.572
465.696
464.803
463.775
462.737
461.773
460.847
460.516
460.282
459.759
458.972
458.392
458.055
457.621
457.101
456.657
456.223
455.737
455.255
454.807
454.379
453.946
453.501
453.055
452.616
452.184
451.767
451.382
451.068
450.913
451.013
451.431
451.936
452.254
452.357
485.534
480.818
477.466
473.924
470.971
468.934
467.686
466.657
465.535
464.353
463.225
462.13
461.482
461.131
460.64
459.855
459.112
458.626
458.171
457.625
457.106
456.626
456.118
455.598
455.106
454.644
454.189
453.727
453.262
452.804
452.356
451.923
451.523
451.19
451.009
451.027
451.4
451.901
452.232
452.341
491.83
484.706
480.844
477.278
473.957
471.403
469.721
468.479
467.255
465.956
464.68
463.433
462.518
461.985
461.475
460.709
459.865
459.227
458.711
458.143
457.568
457.036
456.499
455.947
455.416
454.919
454.44
453.96
453.477
453.002
452.538
452.092
451.677
451.327
451.123
451.049
451.378
451.871
452.21
452.324
497.624
489.057
484.178
480.435
476.898
473.917
471.791
470.276
468.925
467.524
466.119
464.735
463.598
462.86
462.281
461.527
460.626
459.857
459.253
458.655
458.036
457.452
456.881
456.3
455.734
455.202
454.698
454.199
453.7
453.208
452.73
452.271
451.843
451.479
451.253
451.079
451.364
451.846
452.19
452.306
502.929
493.569
487.587
483.439
479.731
476.426
473.887
472.061
470.548
469.049
467.531
466.024
464.702
463.759
463.073
462.311
461.38
460.505
459.803
459.161
458.506
457.873
457.265
456.656
456.058
455.493
454.962
454.444
453.929
453.423
452.931
452.459
452.019
451.644
451.397
451.117
451.357
451.827
452.172
452.289
507.803
498.038
491.074
486.354
482.439
478.889
475.989
473.84
472.136
470.529
468.91
467.293
465.813
464.68
463.863
463.068
462.118
461.162
460.363
459.664
458.973
458.298
457.651
457.013
456.385
455.79
455.232
454.694
454.165
453.644
453.139
452.655
452.206
451.82
451.552
451.162
451.357
451.813
452.155
452.271
512.288
502.345
494.59
489.223
485.032
481.279
478.077
475.613
473.694
471.967
470.253
468.536
466.921
465.614
464.656
463.805
462.836
461.819
460.93
460.167
459.437
458.723
458.039
457.371
456.716
456.091
455.506
454.949
454.405
453.871
453.353
452.86
452.401
452.006
451.716
451.211
451.363
451.804
452.14
452.254
516.414
506.429
498.072
492.058
487.529
483.583
480.129
477.373
475.227
473.366
471.558
469.748
468.016
466.553
465.452
464.528
463.535
462.47
461.501
460.67
459.899
459.148
458.428
457.73
457.047
456.395
455.785
455.209
454.649
454.102
453.574
453.07
452.603
452.2
451.888
451.263
451.374
451.8
452.127
452.237
520.204
510.263
501.465
494.852
489.943
485.797
482.13
479.11
476.736
474.729
472.824
470.928
469.091
467.49
466.249
465.241
464.215
463.111
462.071
461.174
460.357
459.571
458.816
458.088
457.379
456.701
456.067
455.471
454.897
454.338
453.799
453.286
452.812
452.402
452.064
451.315
451.391
451.8
452.115
452.22
523.677
513.835
504.729
497.588
492.283
487.923
484.068
480.814
478.219
476.058
474.054
472.074
470.143
468.418
467.045
465.945
464.878
463.738
462.638
461.676
460.812
459.991
459.203
458.445
457.711
457.009
456.352
455.736
455.148
454.577
454.028
453.507
453.026
452.61
452.243
451.366
451.413
451.803
452.105
452.203
526.852
517.146
507.832
500.245
494.549
489.963
485.936
482.476
479.671
477.354
475.246
473.185
471.167
469.331
467.835
466.641
465.526
464.352
463.199
462.175
461.264
460.407
459.587
458.8
458.041
457.316
456.637
456.003
455.4
454.819
454.26
453.732
453.245
452.821
452.419
451.413
451.438
451.81
452.096
452.187
529.75
520.2
510.758
502.801
496.737
491.92
487.73
484.088
481.089
478.616
476.401
474.259
472.161
470.225
468.615
467.328
466.161
464.951
463.75
462.669
461.711
460.819
459.968
459.153
458.37
457.622
456.922
456.271
455.655
455.062
454.494
453.959
453.467
453.036
452.595
451.46
451.466
451.819
452.088
452.172
532.391
523.009
513.495
505.241
498.841
493.794
489.448
485.643
482.467
479.843
477.521
475.298
473.123
471.097
469.383
468.005
466.782
465.536
464.291
463.157
462.153
461.226
460.344
459.503
458.696
457.927
457.207
456.539
455.909
455.306
454.73
454.188
453.691
453.252
452.69
451.503
451.496
451.83
452.081
452.157
534.796
525.581
516.037
507.549
500.852
495.584
491.089
487.137
483.8
481.033
478.603
476.301
474.052
471.943
470.134
468.67
467.389
466.105
464.819
463.637
462.589
461.627
460.716
459.849
459.019
458.229
457.491
456.807
456.164
455.551
454.967
454.419
453.919
453.464
452.67
451.54
451.528
451.844
452.075
452.142
536.985
527.931
518.386
509.717
502.764
497.29
492.653
488.568
485.085
482.183
479.649
477.266
474.947
472.761
470.866
469.322
467.983
466.66
465.334
464.107
463.017
462.022
461.083
460.19
459.337
458.528
457.772
457.073
456.418
455.795
455.203
454.65
454.145
453.597
452.612
451.569
451.56
451.858
452.07
452.127
538.975
530.07
520.542
511.738
504.57
498.909
494.137
489.932
486.318
483.291
480.656
478.195
475.808
473.55
471.577
469.958
468.562
467.199
465.835
464.566
463.437
462.409
461.443
460.525
459.651
458.823
458.051
457.338
456.671
456.038
455.439
454.882
454.361
453.599
452.54
451.592
451.594
451.874
452.065
452.114
540.783
532.01
522.51
513.606
506.263
500.438
495.543
491.227
487.496
484.355
481.624
479.086
476.632
474.308
472.264
470.576
469.127
467.723
466.321
465.013
463.848
462.789
461.796
460.855
459.96
459.113
458.326
457.6
456.922
456.28
455.674
455.114
454.552
453.539
452.46
451.61
451.628
451.89
452.06
452.1
542.423
533.762
524.295
515.322
507.84
501.875
496.869
492.453
488.617
485.372
482.551
479.938
477.421
475.034
472.925
471.176
469.675
468.23
466.792
465.448
464.249
463.16
462.141
461.178
460.263
459.399
458.597
457.858
457.169
456.518
455.907
455.345
454.721
453.451
452.375
451.625
451.662
451.906
452.055
452.087
543.908
535.336
525.902
516.885
509.299
503.219
498.115
493.609
489.68
486.342
483.436
480.752
478.172
475.728
473.561
471.756
470.207
468.721
467.247
465.869
464.639
463.523
462.479
461.493
460.559
459.679
458.864
458.113
457.414
456.754
456.14
455.563
454.749
453.343
452.289
451.639
451.696
451.921
452.05
452.075
545.246
536.737
527.333
518.293
510.635
504.465
499.277
494.692
490.681
487.261
484.278
481.525
478.885
476.386
474.167
472.315
470.72
469.194
467.685
466.276
465.017
463.875
462.807
461.8
460.848
459.953
459.125
458.363
457.653
456.987
456.373
455.745
454.634
453.212
452.186
451.652
451.73
451.936
452.044
452.063
546.465
537.997
528.62
519.572
511.869
505.632
500.371
495.715
491.631
488.137
485.082
482.263
479.565
477.015
474.752
472.856
471.218
469.652
468.109
466.671
465.386
464.218
463.128
462.101
461.132
460.223
459.383
458.611
457.892
457.221
456.601
455.879
454.461
453.089
452.249
451.669
451.763
451.949
452.038
452.052
495.416
494.589
491.58
488.353
485.575
487.278
490.754
496.247
497.397
496.368
495.188
497.244
502.844
506.653
497.268
501.289
503.296
508.301
513.931
519.398
522.891
498.397
506.531
513.519
519.893
525.523
530.419
534.055
498.975
508.228
516.253
523.199
529.057
533.982
537.954
499.135
508.835
517.188
524.269
530.162
535.083
539.146
499.236
509.158
517.635
524.743
530.635
535.544
539.625
499.293
509.319
517.845
524.959
530.849
535.752
539.839
499.314
509.372
517.909
525.023
530.914
535.815
539.906
499.307
509.347
517.866
524.98
530.872
535.774
539.868
499.278
509.259
517.739
524.832
530.725
535.631
539.729
499.236
509.123
517.539
524.596
530.478
535.387
539.494
499.185
508.951
517.276
524.279
530.124
535.034
539.136
499.132
508.759
516.967
523.891
529.681
534.565
538.64
499.08
508.56
516.629
523.449
529.16
533.997
538.027
499.034
508.369
516.287
522.98
528.589
533.359
537.325
498.994
508.196
515.961
522.513
528.001
532.682
536.566
498.961
508.046
515.668
522.078
527.44
532.018
535.808
498.934
507.921
515.415
521.691
526.928
531.396
535.091
498.914
507.822
515.208
521.366
526.49
530.853
534.458
498.898
507.744
515.041
521.098
526.126
530.393
533.916
498.886
507.685
514.913
520.889
525.837
530.022
533.479
498.877
507.639
514.813
520.725
525.61
529.727
533.128
498.871
507.606
514.74
520.602
525.438
529.502
532.86
498.866
507.58
514.684
520.508
525.307
529.328
532.654
498.863
507.562
514.643
520.44
525.211
529.199
532.5
498.86
507.548
514.612
520.387
525.138
529.101
532.384
498.858
507.539
514.59
520.35
525.084
529.03
532.298
498.857
507.531
514.573
520.321
525.044
528.975
532.234
498.856
507.526
514.562
520.301
525.015
528.936
532.187
498.855
507.522
514.553
520.285
524.994
528.906
532.152
498.854
507.519
514.546
520.274
524.978
528.884
532.126
498.854
507.517
514.541
520.266
524.967
528.868
532.107
498.854
507.515
514.538
520.26
524.958
528.856
532.093
498.853
507.514
514.535
520.255
524.952
528.847
532.083
498.853
507.513
514.533
520.252
524.947
528.841
532.075
498.853
507.513
514.532
520.249
524.944
528.836
532.07
498.853
507.512
514.531
520.247
524.941
528.832
532.066
498.853
507.512
514.53
520.246
524.94
528.83
532.063
498.853
507.512
514.53
520.246
524.939
528.829
532.062
498.182
503.027
508.11
512.998
517.566
521.778
525.629
529.128
532.297
535.162
537.752
540.096
542.222
544.156
545.92
547.532
549.01
550.364
551.607
552.728
513.861
518.35
522.838
526.938
530.595
533.834
536.7
539.245
541.517
543.559
545.409
547.1
548.658
550.104
551.457
552.728
553.928
555.064
556.142
557.156
528.274
531.386
534.38
537.041
539.377
541.44
543.282
544.95
546.481
547.904
549.241
550.511
551.726
552.896
554.027
555.125
556.193
557.232
558.245
559.227
537.44
539.142
540.79
542.307
543.706
545.012
546.25
547.437
548.586
549.706
550.805
551.886
552.952
554.005
555.045
556.072
557.087
558.088
559.076
560.047
540.589
541.712
542.833
543.931
545.008
546.071
547.124
548.171
549.214
550.252
551.288
552.319
553.346
554.368
555.383
556.39
557.389
558.379
559.357
560.322
541.579
542.545
543.525
544.512
545.504
546.5
547.502
548.508
549.517
550.528
551.54
552.551
553.561
554.567
555.568
556.564
557.552
558.532
559.502
560.46
541.993
542.91
543.843
544.79
545.749
546.718
547.695
548.68
549.67
550.665
551.662
552.66
553.657
554.652
555.643
556.63
557.609
558.581
559.544
560.495
542.177
543.072
543.983
544.91
545.85
546.803
547.766
548.737
549.716
550.699
551.686
552.675
553.663
554.65
555.633
556.612
557.585
558.55
559.507
560.453
542.227
543.109
544.007
544.921
545.851
546.793
547.746
548.708
549.678
550.654
551.633
552.614
553.596
554.576
555.553
556.526
557.493
558.453
559.404
560.345
542.178
543.052
543.94
544.846
545.767
546.701
547.647
548.603
549.566
550.536
551.509
552.485
553.461
554.436
555.408
556.377
557.339
558.294
559.241
560.178
542.033
542.902
543.784
544.683
545.598
546.527
547.468
548.418
549.377
550.341
551.31
552.282
553.254
554.225
555.194
556.158
557.117
558.069
559.013
559.946
541.793
542.656
543.533
544.427
545.336
546.26
547.196
548.142
549.097
550.058
551.024
551.992
552.961
553.93
554.896
555.858
556.815
557.765
558.708
559.639
541.427
542.285
543.157
544.047
544.952
545.871
546.803
547.746
548.697
549.654
550.617
551.582
552.549
553.516
554.48
555.441
556.398
557.347
558.289
559.221
540.915
541.77
542.639
543.521
544.418
545.33
546.255
547.19
548.135
549.086
550.042
551.002
551.964
552.926
553.887
554.844
555.798
556.745
557.686
558.617
540.279
541.128
541.99
542.865
543.752
544.655
545.57
546.497
547.432
548.375
549.322
550.274
551.227
552.181
553.134
554.084
555.03
555.97
556.905
557.83
539.543
540.385
541.24
542.105
542.982
543.873
544.778
545.693
546.617
547.548
548.485
549.425
550.367
551.31
552.252
553.192
554.128
555.059
555.984
556.9
538.744
539.578
540.424
541.278
542.142
543.021
543.912
544.815
545.725
546.642
547.565
548.491
549.419
550.348
551.276
552.201
553.123
554.041
554.952
555.856
537.94
538.763
539.599
540.441
541.291
542.155
543.032
543.919
544.814
545.715
546.621
547.53
548.441
549.353
550.263
551.172
552.077
552.977
553.871
554.758
537.175
537.986
538.811
539.639
540.475
541.323
542.185
543.055
543.933
544.816
545.704
546.595
547.487
548.379
549.27
550.159
551.044
551.924
552.799
553.665
536.495
537.294
538.106
538.921
539.742
540.575
541.42
542.274
543.134
543.999
544.868
545.74
546.612
547.484
548.355
549.223
550.086
550.945
551.798
552.642
535.912
536.699
537.499
538.301
539.109
539.927
540.757
541.595
542.438
543.286
544.137
544.989
545.843
546.695
547.546
548.393
549.235
550.073
550.904
551.727
535.439
536.215
537.004
537.794
538.589
539.395
540.211
541.034
541.862
542.693
543.528
544.363
545.199
546.033
546.864
547.692
548.515
549.332
550.143
550.945
535.061
535.828
536.606
537.386
538.172
538.967
539.771
540.581
541.396
542.213
543.033
543.853
544.673
545.49
546.305
547.116
547.921
548.72
549.513
550.297
534.771
535.53
536.3
537.073
537.85
538.636
539.43
540.23
541.033
541.839
542.646
543.453
544.259
545.063
545.863
546.659
547.449
548.233
549.01
549.777
534.549
535.302
536.066
536.833
537.604
538.383
539.169
539.96
540.754
541.55
542.347
543.144
543.938
544.73
545.518
546.302
547.079
547.849
548.613
549.366
534.383
535.134
535.893
536.655
537.422
538.196
538.976
539.76
540.547
541.335
542.124
542.911
543.696
544.479
545.257
546.029
546.796
547.555
548.307
549.05
534.259
535.007
535.764
536.524
537.288
538.058
538.834
539.613
540.394
541.175
541.957
542.737
543.515
544.289
545.058
545.822
546.58
547.33
548.073
548.806
534.168
534.916
535.672
536.43
537.193
537.961
538.733
539.508
540.284
541.061
541.837
542.611
543.382
544.15
544.912
545.669
546.419
547.162
547.896
548.621
534.101
534.85
535.605
536.364
537.126
537.892
538.663
539.435
540.208
540.98
541.752
542.521
543.287
544.048
544.805
545.555
546.299
547.035
547.763
548.48
534.053
534.804
535.561
536.32
537.083
537.849
538.618
539.388
540.158
540.927
541.695
542.46
543.221
543.978
544.729
545.474
546.212
546.942
547.664
548.375
534.018
534.773
535.532
536.293
537.057
537.823
538.592
539.36
540.129
540.895
541.66
542.421
543.178
543.93
544.677
545.417
546.149
546.874
547.591
548.297
533.994
534.754
535.516
536.28
537.046
537.813
538.581
539.349
540.116
540.88
541.642
542.4
543.153
543.902
544.644
545.379
546.107
546.827
547.538
548.24
533.977
534.743
535.51
536.277
537.045
537.814
538.583
539.35
540.116
540.879
541.638
542.393
543.143
543.887
544.625
545.355
546.079
546.794
547.501
548.197
533.967
534.739
535.511
536.283
537.054
537.825
538.594
539.362
540.127
540.888
541.645
542.397
543.143
543.883
544.617
545.344
546.062
546.773
547.474
548.166
533.96
534.741
535.519
536.295
537.07
537.844
538.614
539.382
540.146
540.906
541.66
542.409
543.152
543.889
544.618
545.34
546.054
546.76
547.457
548.144
533.957
534.747
535.532
536.314
537.093
537.87
538.642
539.41
540.174
540.932
541.684
542.43
543.17
543.902
544.627
545.345
546.054
546.754
547.446
548.128
533.957
534.757
535.55
536.339
537.123
537.902
538.677
539.445
540.208
540.965
541.715
542.458
543.194
543.923
544.643
545.355
546.059
546.754
547.44
548.117
533.959
534.77
535.573
536.369
537.158
537.941
538.718
539.488
540.251
541.006
541.754
542.494
543.226
543.949
544.665
545.372
546.07
546.759
547.44
548.11
533.963
534.787
535.6
536.404
537.2
537.987
538.767
539.538
540.3
541.054
541.799
542.536
543.264
543.982
544.692
545.394
546.086
546.769
547.443
548.107
533.97
534.808
535.632
536.445
537.248
538.04
538.822
539.595
540.357
541.109
541.852
542.585
543.308
544.022
544.726
545.421
546.106
546.782
547.45
548.107
452.042
452.032
452.022
452.012
452.002
451.993
451.983
451.974
451.965
451.956
451.948
451.941
451.934
451.928
451.923
451.919
451.916
451.914
451.913
451.913
451.914
451.917
451.921
451.926
451.933
451.941
451.95
451.961
451.973
451.987
452.003
452.02
452.04
452.061
452.084
452.109
452.136
452.165
452.196
452.23
452.267
452.306
452.348
452.393
452.44
452.491
452.545
452.602
452.662
452.725
452.792
452.863
452.937
453.014
453.094
453.178
453.265
453.355
453.447
453.542
453.64
453.739
453.839
453.94
454.042
454.144
454.244
454.344
454.441
454.537
454.629
454.717
454.801
454.881
454.956
455.025
455.088
455.145
455.194
455.237
452.032
452.025
452.017
452.009
452
451.991
451.982
451.973
451.964
451.956
451.948
451.941
451.934
451.928
451.923
451.919
451.916
451.913
451.912
451.913
451.914
451.917
451.92
451.926
451.932
451.94
451.95
451.961
451.973
451.987
452.003
452.02
452.039
452.06
452.083
452.109
452.136
452.165
452.197
452.231
452.267
452.307
452.349
452.393
452.441
452.492
452.546
452.603
452.663
452.727
452.794
452.864
452.938
453.015
453.096
453.179
453.266
453.356
453.449
453.544
453.641
453.74
453.84
453.942
454.043
454.145
454.245
454.345
454.442
454.537
454.629
454.718
454.802
454.881
454.956
455.025
455.088
455.145
455.194
455.237
451.959
451.966
451.969
451.971
451.97
451.968
451.964
451.959
451.954
451.948
451.942
451.936
451.93
451.925
451.921
451.917
451.914
451.912
451.912
451.912
451.913
451.916
451.92
451.925
451.932
451.94
451.949
451.96
451.973
451.987
452.003
452.02
452.04
452.061
452.084
452.11
452.137
452.167
452.199
452.233
452.27
452.31
452.352
452.398
452.446
452.497
452.551
452.608
452.669
452.733
452.8
452.871
452.945
453.022
453.102
453.186
453.273
453.363
453.455
453.55
453.647
453.746
453.846
453.947
454.048
454.149
454.249
454.349
454.446
454.54
454.632
454.72
454.804
454.883
454.958
455.027
455.089
455.146
455.195
455.237
451.793
451.816
451.837
451.855
451.87
451.883
451.893
451.901
451.906
451.91
451.912
451.913
451.913
451.912
451.911
451.91
451.91
451.909
451.91
451.911
451.913
451.917
451.921
451.926
451.933
451.942
451.951
451.963
451.975
451.99
452.006
452.024
452.044
452.066
452.09
452.116
452.144
452.174
452.207
452.243
452.281
452.321
452.365
452.411
452.46
452.512
452.567
452.625
452.686
452.751
452.819
452.89
452.964
453.041
453.122
453.205
453.292
453.381
453.473
453.567
453.664
453.762
453.861
453.961
454.061
454.161
454.261
454.359
454.455
454.549
454.64
454.727
454.81
454.889
454.962
455.03
455.093
455.148
455.197
455.239
451.684
451.7
451.718
451.737
451.757
451.776
451.794
451.811
451.827
451.841
451.854
451.865
451.875
451.883
451.89
451.896
451.901
451.905
451.909
451.914
451.918
451.923
451.929
451.936
451.944
451.953
451.963
451.975
451.988
452.003
452.02
452.039
452.06
452.083
452.108
452.135
452.164
452.196
452.231
452.268
452.307
452.35
452.395
452.443
452.494
452.547
452.604
452.664
452.726
452.792
452.86
452.932
453.006
453.084
453.164
453.247
453.333
453.421
453.512
453.605
453.7
453.796
453.894
453.992
454.09
454.188
454.286
454.382
454.476
454.568
454.656
454.742
454.823
454.9
454.972
455.039
455.1
455.154
455.202
455.243
452.195
452.135
452.08
452.033
451.996
451.967
451.944
451.927
451.916
451.91
451.907
451.907
451.908
451.911
451.915
451.919
451.925
451.931
451.937
451.943
451.949
451.956
451.964
451.972
451.981
451.991
452.003
452.015
452.03
452.046
452.064
452.083
452.105
452.13
452.156
452.185
452.217
452.251
452.287
452.327
452.369
452.414
452.461
452.512
452.565
452.621
452.68
452.741
452.806
452.872
452.942
453.014
453.089
453.166
453.245
453.327
453.412
453.498
453.587
453.677
453.769
453.862
453.956
454.05
454.145
454.239
454.333
454.425
454.515
454.603
454.688
454.77
454.848
454.922
454.991
455.055
455.113
455.165
455.211
455.25
452.979
452.895
452.812
452.729
452.648
452.573
452.502
452.437
452.378
452.327
452.282
452.242
452.208
452.179
452.157
452.139
452.124
452.112
452.103
452.097
452.094
452.093
452.094
452.098
452.103
452.11
452.12
452.131
452.144
452.159
452.177
452.196
452.219
452.244
452.271
452.302
452.335
452.371
452.41
452.452
452.496
452.544
452.595
452.648
452.704
452.763
452.824
452.887
452.953
453.021
453.091
453.163
453.237
453.313
453.391
453.47
453.551
453.634
453.718
453.803
453.89
453.977
454.065
454.153
454.241
454.328
454.414
454.5
454.583
454.665
454.743
454.819
454.891
454.96
455.024
455.083
455.137
455.185
455.226
455.262
454.296
454.172
454.049
453.927
453.806
453.687
453.571
453.458
453.349
453.242
453.142
453.05
452.964
452.885
452.814
452.751
452.694
452.642
452.597
452.558
452.527
452.502
452.48
452.461
452.446
452.436
452.43
452.429
452.431
452.438
452.449
452.462
452.48
452.501
452.526
452.554
452.586
452.621
452.66
452.702
452.748
452.797
452.849
452.903
452.961
453.02
453.083
453.147
453.212
453.28
453.349
453.419
453.49
453.562
453.635
453.709
453.784
453.859
453.935
454.011
454.088
454.165
454.243
454.32
454.396
454.472
454.547
454.621
454.694
454.765
454.833
454.899
454.962
455.021
455.077
455.128
455.174
455.216
455.251
455.281
455.906
455.882
455.778
455.64
455.49
455.339
455.187
455.035
454.886
454.737
454.592
454.449
454.311
454.177
454.048
453.924
453.809
453.703
453.605
453.516
453.436
453.365
453.301
453.243
453.192
453.149
453.115
453.089
453.068
453.05
453.037
453.03
453.029
453.034
453.045
453.062
453.084
453.111
453.143
453.178
453.218
453.262
453.309
453.36
453.413
453.469
453.528
453.587
453.648
453.71
453.773
453.836
453.899
453.962
454.025
454.088
454.15
454.213
454.274
454.336
454.397
454.457
454.517
454.577
454.635
454.694
454.751
454.808
454.863
454.917
454.97
455.02
455.069
455.114
455.157
455.196
455.231
455.262
455.288
455.309
456.764
456.876
456.98
457.073
457.152
457.216
457.276
457.219
457.067
456.884
456.695
456.507
456.32
456.136
455.956
455.779
455.607
455.442
455.282
455.129
454.982
454.843
454.717
454.607
454.478
454.382
454.302
454.234
454.174
454.121
454.077
454.04
454.012
453.995
453.986
453.981
453.979
453.983
453.993
454.008
454.03
454.057
454.09
454.127
454.166
454.209
454.253
454.298
454.344
454.391
454.437
454.483
454.529
454.573
454.617
454.659
454.699
454.738
454.776
454.813
454.848
454.882
454.916
454.949
454.981
455.013
455.044
455.075
455.106
455.136
455.166
455.194
455.222
455.248
455.272
455.294
455.312
455.328
455.34
455.348
457.382
457.503
457.636
457.779
457.93
458.087
458.251
458.411
458.558
458.684
458.816
458.704
458.532
458.35
458.168
457.984
457.799
457.614
457.43
457.248
457.068
456.892
456.721
456.557
456.398
456.245
456.098
455.962
455.84
455.731
455.647
455.508
455.433
455.38
455.339
455.305
455.28
455.264
455.252
455.249
455.255
455.267
455.279
455.291
455.304
455.319
455.335
455.351
455.368
455.385
455.402
455.418
455.432
455.443
455.452
455.459
455.463
455.466
455.466
455.464
455.461
455.457
455.452
455.448
455.443
455.438
455.434
455.431
455.429
455.427
455.426
455.425
455.424
455.424
455.423
455.421
455.418
455.413
455.405
455.395
458.045
458.157
458.279
458.412
458.555
458.709
458.876
459.055
459.248
459.451
459.669
459.879
460.069
460.273
460.194
460.048
459.883
459.71
459.53
459.357
459.191
459.027
458.863
458.698