/*--------------------------------*- C++ -*----------------------------------*\
  =========                 |
  \\      /  F ield         | OpenFOAM: The Open Source CFD Toolbox
   \\    /   O peration     | Website:  https://openfoam.org
    \\  /    A nd           | Version:  13
     \\/     M anipulation  |
\*---------------------------------------------------------------------------*/
FoamFile
{
    format      ascii;
    class       volVectorField;
    location    "190";
    object      U;
}
// * * * * * * * * * * * * * * * * * * * * * * * * * * * * * * * * * * * * * //

dimensions      [0 1 -1 0 0 0 0];

internalField   nonuniform List<vector> 
26820
(
(5.39977 0.000107629 3.07489e-21)
(5.3979 0.000315482 -2.08797e-22)
(5.39435 0.000536079 4.44728e-22)
(5.38944 0.000777348 -7.22237e-22)
(5.38349 0.00105046 5.05824e-22)
(5.3767 0.00134684 0)
(5.36912 0.00172855 6.2821e-22)
(5.39977 0.000310788 -3.60831e-21)
(5.39791 0.000931595 3.79429e-21)
(5.39437 0.00159034 0)
(5.38948 0.00231041 0)
(5.38355 0.00312768 0)
(5.37679 0.00401443 0)
(5.36925 0.00515907 -2.80122e-21)
(5.39977 0.000505649 4.76484e-22)
(5.39792 0.0015409 -4.49263e-21)
(5.39439 0.00263629 2.06839e-21)
(5.38951 0.00383242 -7.45383e-23)
(5.38362 0.00519323 -2.39998e-21)
(5.37691 0.00666819 5.07476e-21)
(5.36943 0.0085807 -5.5154e-21)
(5.39977 0.000706166 1.58593e-20)
(5.39792 0.00215984 -8.85097e-21)
(5.39441 0.00369268 6.26632e-21)
(5.38957 0.00536509 -2.17709e-21)
(5.38372 0.00726981 4.69435e-21)
(5.37708 0.00933144 2.59858e-21)
(5.3697 0.0120134 -1.08286e-20)
(5.39976 0.000908486 -1.5646e-20)
(5.39793 0.00277928 8.74631e-21)
(5.39444 0.00474823 -2.00619e-23)
(5.38964 0.00689524 8.72947e-21)
(5.38385 0.00934193 0)
(5.37732 0.0119856 0)
(5.37006 0.0154337 -2.68531e-21)
(5.39976 0.00111172 0)
(5.39794 0.00339911 0)
(5.39447 0.00580348 -1.2128e-20)
(5.38972 0.00842364 -1.29343e-20)
(5.38401 0.0114105 -1.38986e-20)
(5.37761 0.0146306 9.94999e-21)
(5.3705 0.0188424 -4.87188e-21)
(5.39976 0.00131592 -1.24568e-20)
(5.39795 0.0040199 -1.69907e-20)
(5.39452 0.00685869 2.40987e-20)
(5.38983 0.00995002 0)
(5.38421 0.0134746 1.82757e-20)
(5.37797 0.0172643 4.65532e-21)
(5.37104 0.0222359 2.09771e-20)
(5.39976 0.00152118 4.96169e-23)
(5.39797 0.00464183 1.87489e-20)
(5.39457 0.00791357 -1.58301e-20)
(5.38996 0.0114737 -4.18824e-21)
(5.38445 0.015533 -9.08944e-21)
(5.37839 0.019884 -9.70627e-21)
(5.37167 0.0256107 -3.81688e-23)
(5.39976 0.00172755 1.39086e-20)
(5.39799 0.00526483 3.73366e-21)
(5.39463 0.00896769 -3.89664e-21)
(5.39011 0.0129939 0)
(5.38473 0.0175843 0)
(5.37887 0.0224872 9.58612e-21)
(5.37239 0.0289637 -1.04614e-20)
(5.39975 0.00193502 0)
(5.39801 0.00588877 1.45685e-20)
(5.39471 0.0100205 -1.55547e-20)
(5.39028 0.0145099 0)
(5.38504 0.0196271 -8.91488e-21)
(5.37942 0.0250713 -9.60035e-21)
(5.37321 0.0322913 -5.40197e-21)
(5.39975 0.00214356 2.70314e-20)
(5.39803 0.0065134 -1.44919e-20)
(5.39479 0.0110715 3.09244e-20)
(5.39047 0.0160208 0)
(5.38539 0.0216595 1.77846e-20)
(5.38004 0.027634 0)
(5.37413 0.03559 0)
(5.39975 0.0023531 -1.82436e-21)
(5.39806 0.00713834 5.40501e-21)
(5.39488 0.0121197 -2.67122e-20)
(5.39069 0.0175259 -8.14386e-21)
(5.38579 0.0236798 -8.8834e-21)
(5.38073 0.0301729 0)
(5.37515 0.0388559 -2.10739e-20)
(5.39976 0.00256352 -2.66508e-20)
(5.3981 0.00776313 3.5931e-21)
(5.39499 0.0131645 -3.685e-21)
(5.39093 0.0190241 8.33727e-21)
(5.38623 0.0256857 -8.70179e-21)
(5.38148 0.0326862 -9.78311e-21)
(5.37627 0.0420847 3.06033e-20)
(5.39976 0.00277471 3.31222e-21)
(5.39813 0.00838722 -3.51979e-21)
(5.39511 0.0142048 1.52361e-20)
(5.3912 0.0205145 1.63013e-20)
(5.38671 0.0276748 -8.75871e-21)
(5.38231 0.0351724 -9.4821e-21)
(5.37749 0.045271 -5.24551e-21)
(5.39976 0.00298644 0)
(5.39818 0.00900997 1.40247e-20)
(5.39525 0.01524 0)
(5.39149 0.0219965 -1.63932e-20)
(5.38724 0.0296446 1.75728e-20)
(5.38321 0.0376312 -1.9082e-20)
(5.37881 0.048407 3.61023e-20)
(5.39977 0.00319839 0)
(5.39823 0.00963023 -1.40822e-20)
(5.3954 0.0162694 -7.65896e-21)
(5.39181 0.0234702 7.92685e-21)
(5.38782 0.0315948 -1.79577e-20)
(5.38417 0.0400657 8.95858e-21)
(5.38023 0.0514856 2.0395e-20)
(5.39978 0.00341038 -1.29944e-20)
(5.39828 0.0102452 0)
(5.39556 0.0172875 0)
(5.39216 0.024929 -8.20858e-21)
(5.38845 0.0335189 0)
(5.38521 0.0424784 9.55884e-21)
(5.38175 0.054496 -2.04408e-20)
(5.39979 0.00362379 1.63727e-20)
(5.39834 0.0108546 -3.49975e-21)
(5.39574 0.0182868 0)
(5.39253 0.0263523 0)
(5.38913 0.0353832 1.78684e-20)
(5.3863 0.0448383 -2.34812e-20)
(5.38335 0.0573804 2.0942e-20)
(5.3998 0.00384327 0)
(5.39841 0.0114838 7.12062e-21)
(5.39593 0.0193163 -7.56182e-21)
(5.39293 0.0277949 4.23262e-21)
(5.38985 0.0372203 -2.66363e-20)
(5.38744 0.0471237 2.58127e-20)
(5.38507 0.060047 1.82099e-20)
(5.39981 0.00406651 0)
(5.39847 0.0122144 7.85952e-21)
(5.39612 0.0206496 -8.31531e-21)
(5.39332 0.029805 4.53073e-21)
(5.39059 0.0398653 0)
(5.38858 0.0503988 -2.2982e-20)
(5.38695 0.0637261 2.44881e-20)
(5.36033 0.00200664 3.42144e-23)
(5.34992 0.00227847 -1.59091e-21)
(5.33818 0.00255817 9.1864e-22)
(5.32501 0.00286083 8.96463e-21)
(5.31032 0.00319316 -6.90577e-22)
(5.29398 0.00355926 -6.39702e-21)
(5.27583 0.00396365 9.16155e-22)
(5.25567 0.00441197 0)
(5.23331 0.00491051 0)
(5.2085 0.00546624 0)
(5.181 0.00608692 0)
(5.15049 0.00678144 0)
(5.11666 0.0075599 -7.08706e-22)
(5.07914 0.00843382 1.20446e-21)
(5.0375 0.00941638 7.26424e-21)
(4.99129 0.0105226 0)
(4.94 0.0117699 7.21044e-22)
(4.88305 0.0131778 -1.22176e-21)
(4.81979 0.0147692 8.31208e-21)
(4.74952 0.01657 0)
(4.67145 0.0186099 5.57362e-21)
(4.58469 0.0209228 4.35326e-22)
(4.48829 0.0235474 7.43284e-21)
(4.38116 0.0265273 -4.70603e-21)
(4.26215 0.0299122 0)
(4.12998 0.0337573 0)
(3.98328 0.0381244 -3.94765e-21)
(3.82055 0.0430817 0)
(3.64024 0.0487033 5.54871e-21)
(3.4407 0.0550691 -5.71198e-21)
(3.22021 0.0622632 -9.4013e-22)
(2.97707 0.0703714 4.58736e-21)
(2.70957 0.0794764 7.01209e-22)
(2.41611 0.0896497 4.7101e-23)
(2.09531 0.100933 -1.88427e-21)
(1.74612 0.113301 1.08287e-21)
(1.3682 0.126568 0)
(0.961593 0.139992 0)
(0.52894 0.147283 0)
(0.119993 0.112263 0)
(5.3605 0.0059881 2.67957e-21)
(5.35012 0.00680512 1.29182e-20)
(5.33842 0.00764572 0)
(5.32528 0.00855361 -9.02415e-21)
(5.31063 0.00954984 0)
(5.29433 0.010647 1.89472e-20)
(5.27622 0.0118588 0)
(5.25612 0.0132019 2.31249e-21)
(5.23381 0.0146953 -2.56008e-21)
(5.20907 0.0163597 -1.63914e-21)
(5.18163 0.0182181 3.76606e-21)
(5.1512 0.0202971 -2.15853e-21)
(5.11746 0.0226268 1.06541e-20)
(5.08004 0.0252414 0)
(5.03852 0.0281801 -7.62158e-21)
(4.99245 0.0314877 -1.81754e-20)
(4.94132 0.0352155 -1.42458e-21)
(4.88455 0.0394221 1.5678e-21)
(4.82151 0.044175 -7.80765e-21)
(4.75149 0.0495513 0)
(4.67371 0.055639 -5.59547e-21)
(4.5873 0.0625389 0)
(4.4913 0.0703654 1.00541e-20)
(4.38465 0.0792483 2.4944e-21)
(4.2662 0.0893341 0)
(4.13468 0.100787 -1.54647e-20)
(3.98875 0.11379 1.42472e-20)
(3.82693 0.128544 0)
(3.64768 0.14527 -7.37966e-21)
(3.44938 0.164203 6.85631e-21)
(3.23036 0.185591 4.16936e-21)
(2.98891 0.209688 -7.3642e-21)
(2.72338 0.236741 3.05013e-21)
(2.43218 0.266964 -3.41373e-21)
(2.11392 0.300495 8.3177e-21)
(1.76744 0.337312 0)
(1.39209 0.377029 0)
(0.98689 0.41781 0)
(0.552823 0.44034 0)
(0.120189 0.331782 9.62213e-21)
(5.36077 0.00995331 2.36758e-21)
(5.35046 0.011316 -9.11871e-21)
(5.33881 0.0127186 3.20267e-20)
(5.32574 0.0142309 -8.41655e-21)
(5.31116 0.0158893 2.46142e-20)
(5.29494 0.0177155 -8.71063e-21)
(5.27692 0.0197323 2.44024e-20)
(5.2569 0.0219676 -2.1455e-21)
(5.2347 0.0244527 2.19595e-20)
(5.21007 0.0272218 -3.03918e-21)
(5.18276 0.0303134 3.35838e-21)
(5.15248 0.0337714 2.16085e-21)
(5.11891 0.0376456 1.00156e-20)
(5.08167 0.0419927 -2.63899e-20)
(5.04037 0.0468776 3.68499e-21)
(4.99455 0.0523744 -3.98077e-21)
(4.9437 0.0585678 -2.63675e-21)
(4.88726 0.065555 2.90172e-21)
(4.82461 0.0734472 -1.43845e-20)
(4.75503 0.0823717 0)
(4.67777 0.092474 0)
(4.59196 0.10392 -1.23221e-20)
(4.49665 0.116899 -1.87088e-20)
(4.39082 0.131624 4.25573e-21)
(4.27332 0.148337 0)
(4.14291 0.167308 1.26778e-20)
(3.99828 0.188837 -1.15115e-20)
(3.83798 0.213257 6.6855e-21)
(3.6605 0.240926 1.088e-20)
(3.46426 0.272234 -3.0828e-21)
(3.24763 0.307586 0)
(3.00896 0.3474 0)
(2.74662 0.392081 -1.06248e-20)
(2.45908 0.441993 0)
(2.14493 0.497397 -2.24082e-20)
(1.80294 0.558366 1.33075e-20)
(1.43226 0.624562 -5.13332e-21)
(1.03125 0.693523 -1.53691e-20)
(0.599548 0.732347 3.67515e-21)
(0.148767 0.546082 -8.74256e-21)
(5.36116 0.0139187 9.60356e-21)
(5.35093 0.0158208 -5.50009e-21)
(5.33937 0.0177821 -3.00336e-20)
(5.3264 0.0198957 7.86372e-21)
(5.31193 0.0222126 1.38953e-20)
(5.29582 0.0247638 0)
(5.27792 0.0275814 -2.9378e-20)
(5.25804 0.030704 3.72973e-21)
(5.23599 0.0341753 -1.83295e-20)
(5.21153 0.0380429 0)
(5.18441 0.0423606 3.37324e-21)
(5.15434 0.0471894 -7.74745e-21)
(5.12101 0.0525987 -1.40072e-20)
(5.08405 0.0586675 1.32359e-22)
(5.04307 0.065486 -2.95664e-20)
(4.99761 0.0731573 1.9495e-20)
(4.94718 0.0817993 -2.45094e-21)
(4.89122 0.0915471 2.69718e-21)
(4.82912 0.102555 1.69597e-20)
(4.76019 0.115 1.21107e-20)
(4.68367 0.129085 0)
(4.59873 0.145038 1.45234e-20)
(4.50443 0.163123 -6.89174e-21)
(4.39977 0.183636 -1.23681e-20)
(4.28363 0.206911 0)
(4.15482 0.233321 3.05578e-21)
(4.01204 0.263284 -3.35746e-21)
(3.85389 0.297257 4.33242e-21)
(3.67892 0.335738 -1.47003e-20)
(3.48559 0.379261 -3.05255e-21)
(3.27231 0.42839 3.3656e-21)
(3.03751 0.483699 1.63397e-20)
(2.77962 0.545754 9.80637e-21)
(2.49713 0.615075 0)
(2.18868 0.692068 1.36157e-20)
(1.853 0.77696 -1.20417e-20)
(1.48919 0.869562 9.27256e-21)
(1.09504 0.966841 -1.05867e-20)
(0.667403 1.02221 1.28862e-20)
(0.196895 0.757968 -2.30211e-20)
(5.36167 0.0178624 0)
(5.35156 0.0202982 0)
(5.34011 0.0228145 0)
(5.32727 0.0255245 0)
(5.31294 0.0284939 -6.94238e-20)
(5.29698 0.0317635 0)
(5.27924 0.0353746 0)
(5.25954 0.0393765 -3.74445e-21)
(5.23768 0.0438246 4.14218e-21)
(5.21344 0.0487801 -1.49756e-20)
(5.18657 0.0543115 -5.84976e-21)
(5.15679 0.0604968 0)
(5.12378 0.0674246 -2.97572e-20)
(5.08719 0.0751957 1.56387e-20)
(5.04662 0.0839252 4.8967e-20)
(5.00164 0.0937446 -3.82437e-21)
(4.95176 0.104804 3.90144e-20)
(4.89644 0.117275 0)
(4.83507 0.131356 0)
(4.76698 0.14727 -1.5016e-20)
(4.69144 0.165275 -4.67783e-21)
(4.60763 0.185664 -4.52273e-22)
(4.51465 0.208769 6.14158e-21)
(4.41153 0.234966 1.53309e-20)
(4.29718 0.264681 -4.75658e-21)
(4.17044 0.298387 5.22247e-21)
(4.03006 0.336613 0)
(3.87472 0.379937 1.52341e-20)
(3.70299 0.428991 0)
(3.51341 0.484451 2.14208e-20)
(3.30447 0.547029 0)
(3.07465 0.617456 -1.13253e-20)
(2.82245 0.696453 -2.18797e-20)
(2.54643 0.784699 5.36485e-21)
(2.24528 0.882757 -5.95613e-21)
(1.91772 0.991024 -1.40284e-20)
(1.5629 1.10948 0)
(1.17809 1.23444 -9.12804e-21)
(0.755631 1.30595 1.10925e-20)
(0.261323 0.965195 1.41194e-20)
(5.3623 0.0217808 -4.21353e-20)
(5.35234 0.0247417 -5.14108e-21)
(5.34104 0.0278068 5.72174e-21)
(5.32835 0.0311068 -7.15335e-21)
(5.31418 0.0347211 3.9296e-21)
(5.29841 0.0387008 4.31512e-20)
(5.28087 0.0430962 0)
(5.26139 0.047967 0)
(5.23978 0.0533801 0)
(5.21582 0.0594098 1.91656e-20)
(5.18926 0.0661392 2.26098e-20)
(5.15982 0.0736627 0)
(5.12721 0.0820878 3.65709e-20)
(5.09107 0.0915364 -4.63582e-21)
(5.05102 0.102148 -2.30464e-20)
(5.00663 0.114081 -2.72431e-20)
(4.95743 0.127517 -6.54318e-20)
(4.90289 0.142665 0)
(4.84242 0.159761 -2.32244e-20)
(4.77538 0.179078 -2.7749e-20)
(4.70105 0.200924 -4.36714e-21)
(4.61865 0.225654 1.00141e-20)
(4.52729 0.253667 -1.1956e-20)
(4.42606 0.285416 6.83682e-21)
(4.3139 0.321413 0)
(4.18971 0.362227 -1.99821e-20)
(4.0523 0.408492 0)
(3.90039 0.460905 -1.80726e-20)
(3.73263 0.520222 1.63745e-20)
(3.54765 0.587255 -1.53316e-20)
(3.34399 0.662859 2.32556e-20)
(3.12024 0.747911 2.01743e-20)
(2.87496 0.843286 4.0345e-20)
(2.60681 0.949816 0)
(2.31452 1.06822 -5.65377e-21)
(1.99686 1.19907 6.69449e-21)
(1.65305 1.34252 -1.44877e-20)
(1.27991 1.49411 1.72787e-20)
(0.863695 1.58091 -1.01158e-20)
(0.340734 1.16528 -6.19931e-21)
(5.36306 0.0256698 2.39558e-20)
(5.35328 0.0291463 9.2058e-21)
(5.34214 0.0327528 0)
(5.32964 0.0366345 -6.75305e-21)
(5.31568 0.0408848 3.84306e-20)
(5.30012 0.0455646 -4.12691e-20)
(5.28282 0.0507333 5.22404e-21)
(5.2636 0.0564605 0)
(5.24228 0.0628245 -3.93387e-21)
(5.21864 0.069912 4.3474e-21)
(5.19245 0.0778205 -2.14685e-20)
(5.16343 0.0866605 1.86631e-20)
(5.13129 0.0965575 3.74335e-20)
(5.09569 0.107654 0)
(5.05626 0.120113 4.28169e-20)
(5.01257 0.134119 2.58624e-20)
(4.96418 0.149885 2.68767e-20)
(4.91057 0.167652 3.6032e-20)
(4.85118 0.187697 4.33307e-20)
(4.78537 0.210337 3.26383e-20)
(4.71248 0.235931 -4.08513e-21)
(4.63173 0.26489 -3.73559e-20)
(4.5423 0.297678 -4.61083e-22)
(4.4433 0.334823 3.26416e-20)
(4.33374 0.376915 -3.12511e-20)
(4.21256 0.424615 1.89489e-20)
(4.07864 0.478659 -5.81135e-21)
(3.93078 0.539851 6.3747e-21)
(3.76771 0.609067 -1.57995e-20)
(3.58812 0.687248 0)
(3.39068 0.77538 -3.77183e-20)
(3.17405 0.874484 -3.19458e-20)
(2.9369 0.985577 -7.42207e-21)
(2.67796 1.10964 -1.28585e-20)
(2.39606 1.24755 -2.20002e-22)
(2.09004 1.40003 1.73915e-20)
(1.75916 1.56742 1.34589e-20)
(1.39991 1.74437 0)
(0.99092 1.8453 1.69295e-20)
(0.434159 1.35627 5.51347e-21)
(5.36395 0.0295237 -6.84447e-20)
(5.35437 0.0335051 8.72454e-21)
(5.34343 0.0376442 5.42218e-21)
(5.33114 0.0420982 3.70798e-22)
(5.31741 0.0469739 -7.08943e-21)
(5.3021 0.0523423 0)
(5.28507 0.0582714 0)
(5.26616 0.0648404 -4.79415e-20)
(5.24517 0.0721386 -3.58386e-20)
(5.22192 0.0802648 -2.55127e-20)
(5.19615 0.0893304 0)
(5.16762 0.0994614 -2.41085e-20)
(5.13602 0.110801 -4.96211e-20)
(5.10104 0.123511 -8.20552e-21)
(5.06232 0.137776 -4.08103e-20)
(5.01945 0.153808 2.40034e-20)
(4.97199 0.171847 0)
(4.91945 0.192168 -3.47035e-20)
(4.86129 0.215085 -2.60939e-20)
(4.79691 0.240956 5.9087e-21)
(4.72567 0.270189 0)
(4.64683 0.303247 3.97932e-20)
(4.55962 0.340658 4.26264e-22)
(4.46318 0.383016 -5.54837e-20)
(4.3566 0.430987 6.51134e-22)
(4.23887 0.485319 -3.45515e-20)
(4.10896 0.546839 0)
(3.96573 0.616455 0)
(3.80801 0.695154 -2.85171e-20)
(3.63461 0.783993 4.41495e-21)
(3.44427 0.884087 1.54344e-20)
(3.23577 0.996586 0)
(3.00789 1.12264 2.66348e-20)
(2.75946 1.26338 7.34125e-21)
(2.48943 1.41982 1.34842e-20)
(2.1967 1.59284 -2.00492e-20)
(1.88061 1.78295 -1.17461e-20)
(1.53732 1.98382 3.53629e-22)
(1.13641 2.0974 -2.33295e-20)
(0.540587 1.53641 9.75574e-21)
(5.36496 0.0333367 5.36894e-22)
(5.35562 0.0378109 0)
(5.3449 0.0424726 -3.96982e-20)
(5.33285 0.0474879 0)
(5.31938 0.0529771 5.50017e-20)
(5.30436 0.059021 0)
(5.28764 0.0656958 0)
(5.26906 0.0730899 4.58798e-20)
(5.24846 0.0813032 8.79306e-20)
(5.22563 0.0904464 2.45014e-20)
(5.20035 0.100644 0)
(5.17236 0.112037 4.4954e-20)
(5.14138 0.124785 2.71229e-20)
(5.1071 0.139069 0)
(5.06918 0.155095 0)
(5.02723 0.173099 -2.29617e-20)
(4.98082 0.193348 -2.69301e-20)
(4.92949 0.216148 4.2332e-21)
(4.87273 0.241848 -4.65607e-21)
(4.80996 0.270846 0)
(4.74056 0.303594 -2.71796e-20)
(4.66387 0.340606 0)
(4.57915 0.382466 3.84988e-20)
(4.4856 0.42983 2.34281e-20)
(4.38236 0.483438 2.06642e-20)
(4.26851 0.544113 1.29866e-20)
(4.14308 0.612768 -4.65666e-21)
(4.00504 0.690407 0)
(3.85332 0.778117 8.6075e-22)
(3.68682 0.877065 3.08918e-20)
(3.50442 0.98848 2.27851e-20)
(3.30501 1.11363 -5.20443e-21)
(3.08748 1.25381 -2.53045e-20)
(2.8508 1.41025 -6.54851e-22)
(2.59402 1.58413 0)
(2.31617 1.77644 1.9073e-20)
(2.01661 1.98789 0)
(1.69119 2.21099 -5.06104e-21)
(1.29902 2.33554 6.67151e-21)
(0.658856 1.70404 0)
(5.3661 0.0371032 6.21062e-20)
(5.35702 0.0420567 0)
(5.34655 0.0472299 2.83607e-20)
(5.33477 0.0527943 5.5227e-20)
(5.32159 0.0588835 -6.1152e-22)
(5.30689 0.0655883 0)
(5.29051 0.0729924 -3.63467e-20)
(5.27231 0.081193 0)
(5.25214 0.0903001 -4.49177e-20)
(5.22978 0.100436 5.44796e-22)
(5.20503 0.111737 -8.71939e-21)
(5.17765 0.124359 -6.23715e-21)
(5.14736 0.138478 6.15145e-21)
(5.11386 0.154292 0)
(5.07683 0.172028 4.70662e-21)
(5.03589 0.191943 3.73942e-20)
(4.99065 0.214332 5.12046e-20)
(4.94066 0.239528 -3.02052e-20)
(4.88544 0.267914 3.59763e-20)
(4.82445 0.299922 0)
(4.75711 0.336048 2.6086e-20)
(4.68279 0.376852 0)
(4.60082 0.422967 -3.69451e-20)
(4.51044 0.475111 2.13629e-20)
(4.41089 0.534084 6.69334e-21)
(4.30131 0.600783 2.35008e-20)
(4.18082 0.676198 0)
(4.04849 0.761416 5.48604e-21)
(3.90336 0.857617 1.92376e-20)
(3.74445 0.966065 -1.12999e-21)
(3.57077 1.08809 -1.72469e-20)
(3.38132 1.22509 -5.04031e-21)
(3.17516 1.37843 5.51767e-21)
(2.95137 1.54951 1.19193e-20)
(2.70913 1.7396 -6.81948e-21)
(2.44762 1.94981 -8.20441e-21)
(2.1662 2.18107 -4.64612e-21)
(1.86042 2.42453 2.0869e-20)
(1.47744 2.55811 -5.80732e-21)
(0.787635 1.85763 0)
(5.36738 0.0408173 -5.89776e-20)
(5.35858 0.0462357 7.51964e-21)
(5.34837 0.0519081 -3.59388e-20)
(5.33689 0.0580082 -8.4966e-20)
(5.32404 0.0646829 -5.03082e-20)
(5.30967 0.0720323 -5.85126e-20)
(5.29367 0.0801476 9.49611e-21)
(5.2759 0.0891341 -9.96622e-21)
(5.25619 0.0991115 0)
(5.23435 0.110213 0)
(5.21019 0.122587 8.88816e-21)
(5.18347 0.136403 -5.59957e-20)
(5.15393 0.151851 5.35871e-20)
(5.12129 0.169147 0)
(5.08523 0.188536 4.44606e-21)
(5.04541 0.210297 -4.05952e-20)
(5.00145 0.234748 -3.02413e-20)
(4.95292 0.262249 3.65882e-20)
(4.89938 0.293213 -8.11996e-20)
(4.84033 0.328106 4.91342e-21)
(4.77523 0.36746 -6.32444e-21)
(4.7035 0.411877 6.9458e-21)
(4.62452 0.46204 4.45731e-21)
(4.5376 0.518714 -6.53535e-20)
(4.44205 0.582759 -2.35877e-20)
(4.3371 0.655134 0)
(4.22196 0.736899 3.27451e-20)
(4.09582 0.829214 0)
(3.95783 0.93334 -1.65179e-20)
(3.80714 1.05063 -3.38036e-20)
(3.64288 1.1825 0)
(3.46421 1.33044 -4.59617e-21)
(3.27034 1.49594 5.02521e-21)
(3.06048 1.68047 -7.35626e-21)
(2.83396 1.88544 1.34686e-20)
(2.59013 2.11205 2.15622e-20)
(2.32833 2.36141 0)
(2.04374 2.62316 4.40557e-21)
(1.67015 2.76363 -5.0146e-21)
(0.925421 1.99578 0)
(5.36878 0.0444729 6.28022e-20)
(5.36029 0.0503409 -7.57266e-21)
(5.35037 0.0564993 -2.541e-20)
(5.33921 0.0631204 4.07917e-20)
(5.32671 0.0703648 -4.11407e-20)
(5.31272 0.0783415 1.05387e-19)
(5.29713 0.0871481 4.1913e-20)
(5.27981 0.0968982 -9.48112e-21)
(5.2606 0.10772 5.18206e-20)
(5.23933 0.119758 -6.62634e-21)
(5.21581 0.133172 0)
(5.18981 0.148142 0)
(5.16108 0.164875 -8.53804e-20)
(5.12937 0.1836 -1.36239e-20)
(5.09437 0.204582 7.78944e-21)
(5.05575 0.228117 5.00015e-21)
(5.01317 0.254547 -5.0576e-20)
(4.96623 0.284255 2.67878e-20)
(4.9145 0.31768 6.45029e-20)
(4.85755 0.355321 0)
(4.79486 0.397742 -1.65024e-20)
(4.72591 0.445583 2.00866e-20)
(4.65014 0.499567 0)
(4.56694 0.560505 3.8517e-20)
(4.47567 0.629307 7.93664e-22)
(4.37569 0.706987 -2.58608e-20)
(4.26629 0.794662 -3.159e-20)
(4.14677 0.893558 0)
(4.01642 1.005 9.6757e-22)
(3.87449 1.13043 0)
(3.7203 1.27132 2.76505e-20)
(3.55315 1.42926 -1.58453e-20)
(3.37238 1.60581 4.74502e-21)
(3.17739 1.80254 -6.61216e-21)
(2.96765 2.02095 0)
(2.74271 2.26231 -1.9597e-20)
(2.50183 2.52796 -1.42287e-20)
(2.23979 2.80576 2.23329e-20)
(1.87546 2.95078 -4.09757e-21)
(1.07055 2.11727 5.53899e-21)
(5.37031 0.0480638 0)
(5.36216 0.0543651 -7.23859e-21)
(5.35255 0.0609955 1.74859e-20)
(5.34173 0.0681223 -9.42656e-21)
(5.3296 0.0759195 4.58091e-20)
(5.31601 0.0845045 -6.08499e-20)
(5.30086 0.0939813 3.89191e-20)
(5.28403 0.104471 0)
(5.26537 0.11611 -3.86584e-20)
(5.24471 0.129053 -5.7812e-20)
(5.22187 0.14347 -2.24826e-20)
(5.19664 0.159553 -8.83347e-21)
(5.1688 0.177522 8.09615e-20)
(5.13807 0.197621 6.21283e-21)
(5.1042 0.220129 -7.95142e-21)
(5.06688 0.245363 8.75855e-21)
(5.02577 0.273682 3.8017e-20)
(4.98052 0.305492 -1.97541e-20)
(4.93074 0.341256 -3.08182e-20)
(4.87602 0.381499 4.70095e-21)
(4.8159 0.426816 1.65586e-20)
(4.74992 0.477878 -2.57576e-20)
(4.67756 0.535443 2.94523e-20)
(4.59831 0.600362 -3.01417e-20)
(4.5116 0.673587 1.07996e-20)
(4.41688 0.756176 5.96366e-22)
(4.31356 0.849297 6.96403e-21)
(4.20105 0.954228 2.84034e-20)
(4.07876 1.07235 2.97543e-20)
(3.94611 1.20516 1.64366e-20)
(3.80255 1.35421 -5.18617e-20)
(3.64754 1.52113 9.49437e-22)
(3.48061 1.70757 0)
(3.30131 1.91515 -2.43359e-20)
(3.10926 2.1455 2.52323e-20)
(2.90425 2.39987 1.77193e-20)
(2.68544 2.67987 5.46651e-21)
(2.44704 2.97131 -1.39084e-20)
(2.09152 3.11839 0)
(1.22121 2.22103 -8.18077e-21)
(5.37197 0.0515835 1.18076e-20)
(5.36417 0.0583014 -6.65346e-20)
(5.3549 0.0653886 6.35789e-20)
(5.34445 0.0730051 0)
(5.33272 0.0813373 0)
(5.31955 0.0905106 -5.06172e-20)
(5.30487 0.100635 -3.03437e-20)
(5.28856 0.111838 0)
(5.27048 0.124265 0)
(5.25048 0.138079 4.99908e-20)
(5.22837 0.153461 2.19819e-20)
(5.20396 0.170613 8.39215e-21)
(5.17704 0.189766 -4.69067e-20)
(5.14738 0.211179 5.89101e-21)
(5.11471 0.235145 2.85218e-20)
(5.07876 0.261997 -3.3824e-20)
(5.03922 0.29211 0)
(4.99577 0.325911 -2.37794e-20)
(4.94804 0.363884 0)
(4.89568 0.406576 0)
(4.83828 0.454607 5.22917e-21)
(4.77542 0.508677 -5.74247e-21)
(4.70667 0.569572 -2.85818e-20)
(4.63157 0.638175 -2.95187e-21)
(4.54966 0.715473 2.37089e-20)
(4.46047 0.802559 2.32861e-20)
(4.36352 0.900639 3.2817e-20)
(4.25835 1.01103 -3.9265e-20)
(4.14451 1.13517 -4.60888e-21)
(4.02156 1.27457 -3.09161e-20)
(3.88911 1.43086 -4.22188e-21)
(3.74679 1.60571 -1.19489e-20)
(3.5943 1.80082 1.06587e-20)
(3.43138 2.01786 -1.18843e-20)
(3.2578 2.25853 -3.68465e-20)
(3.0736 2.52409 -9.41486e-21)
(2.8778 2.81639 -1.59747e-20)
(2.66391 3.11893 -1.05192e-20)
(2.31636 3.26544 -8.65169e-21)
(1.37542 2.30615 1.16625e-20)
(5.37377 0.0550253 -5.45567e-20)
(5.36634 0.0621426 5.19728e-20)
(5.35742 0.0696709 0)
(5.34736 0.0777606 3.50824e-20)
(5.33604 0.0866091 3.57784e-20)
(5.32333 0.0963495 5.51838e-20)
(5.30915 0.107097 -5.68391e-20)
(5.29339 0.118986 0)
(5.27593 0.13217 0)
(5.25661 0.14682 -4.65729e-20)
(5.23527 0.163125 0)
(5.21174 0.1813 3.25286e-20)
(5.18581 0.201583 5.06796e-21)
(5.15726 0.224248 -5.58757e-21)
(5.12586 0.249599 -3.48628e-20)
(5.09136 0.277983 7.26948e-20)
(5.05347 0.309791 5.00132e-21)
(5.0119 0.345467 1.7628e-20)
(4.96634 0.385512 0)
(4.91645 0.430493 0)
(4.8619 0.481051 -4.90208e-21)
(4.80231 0.537906 -1.64245e-20)
(4.73732 0.601869 0)
(4.66656 0.673848 3.14917e-20)
(4.58965 0.754854 -5.37487e-20)
(4.50622 0.846007 0)
(4.4159 0.948542 -2.52215e-20)
(4.31836 1.06381 0)
(4.21329 1.19326 0)
(4.10039 1.33845 1.94194e-20)
(3.97944 1.50104 2.75847e-20)
(3.85026 1.68271 -3.99826e-21)
(3.7127 1.88523 -1.7407e-20)
(3.56672 2.11028 1.92072e-20)
(3.41223 2.35962 1.69478e-20)
(3.24954 2.63445 9.08974e-21)
(3.07749 2.93695 9.53068e-21)
(2.88869 3.2479 9.74665e-21)
(2.54786 3.39109 5.80854e-21)
(1.5311 2.37189 5.64369e-21)
(5.3757 0.0583827 4.26516e-20)
(5.36865 0.0658811 0)
(5.3601 0.0738346 0)
(5.35046 0.082381 -3.4215e-20)
(5.33958 0.0917263 -7.94558e-20)
(5.32734 0.102011 0)
(5.31368 0.113357 1.16726e-21)
(5.29851 0.125903 8.35523e-21)
(5.28169 0.139812 -9.23286e-21)
(5.26309 0.15526 1.08708e-21)
(5.24257 0.172446 5.22975e-20)
(5.21995 0.191593 -3.17107e-20)
(5.19506 0.212951 0)
(5.16768 0.236801 5.68989e-21)
(5.13762 0.263461 -6.27056e-21)
(5.10463 0.293288 -6.13242e-20)
(5.06846 0.326689 0)
(5.02887 0.364119 4.21741e-20)
(4.98556 0.406095 -2.49064e-20)
(4.93826 0.453199 2.15998e-20)
(4.88666 0.506088 4.77756e-20)
(4.83048 0.565499 1.62207e-20)
(4.7694 0.63226 2.39035e-20)
(4.70314 0.707296 0)
(4.6314 0.791635 3.43765e-20)
(4.55391 0.886415 1.89767e-20)
(4.47044 0.992887 2.77843e-20)
(4.38075 1.11241 -1.30701e-20)
(4.2847 1.24647 -7.13284e-21)
(4.18214 1.39662 -2.07491e-20)
(4.073 1.56453 -1.86023e-20)
(3.95729 1.75192 4.83348e-20)
(3.83505 1.96054 1.72305e-20)
(3.70641 2.1921 -1.86642e-20)
(3.57147 2.44842 3.38365e-21)
(3.43082 2.73057 -3.67322e-21)
(3.28305 3.04106 3.42981e-21)
(3.1196 3.35764 -3.73487e-21)
(2.78376 3.49468 -7.62361e-21)
(1.68603 2.41766 1.17052e-21)
(5.37777 0.061652 -2.98137e-20)
(5.37111 0.0695083 -1.16037e-20)
(5.36295 0.077872 0)
(5.35374 0.0868589 0)
(5.34332 0.0966805 8.00208e-22)
(5.33158 0.107487 -4.41326e-20)
(5.31847 0.119403 7.97187e-21)
(5.3039 0.132577 2.29532e-20)
(5.28776 0.147175 -3.11196e-20)
(5.26992 0.163383 3.81064e-20)
(5.25024 0.181406 -1.37371e-21)
(5.22858 0.201474 0)
(5.20477 0.223847 0)
(5.17862 0.248815 0)
(5.14994 0.276704 0)
(5.11853 0.307884 2.94798e-20)
(5.08416 0.34277 0)
(5.04661 0.38183 -4.64565e-20)
(5.00564 0.425591 3.01118e-20)
(4.96101 0.474647 -2.14128e-20)
(4.91248 0.529667 -3.75611e-20)
(4.85981 0.591399 1.93138e-20)
(4.80276 0.660681 -1.2558e-20)
(4.74112 0.738448 3.92875e-20)
(4.67469 0.825738 -3.76977e-20)
(4.60331 0.923696 -1.85366e-20)
(4.52684 1.03358 -2.14464e-20)
(4.44519 1.15675 0)
(4.35834 1.29468 1.41085e-20)
(4.26632 1.44895 3.07474e-20)
(4.16922 1.6212 1.36566e-20)
(4.06722 1.81316 -3.33952e-20)
(3.96054 2.02657 -1.09921e-20)
(3.84953 2.26312 1.95667e-20)
(3.73443 2.52468 2.97165e-21)
(3.61614 2.81216 2.80925e-21)
(3.49295 3.12841 -8.17307e-21)
(3.3548 3.44775 0)
(3.02172 3.57574 9.52599e-22)
(1.83786 2.44309 -4.38238e-21)
(5.38 0.0648312 2.97781e-20)
(5.37371 0.0730173 -5.86454e-21)
(5.36596 0.0817755 -4.6276e-20)
(5.3572 0.0911875 0)
(5.34725 0.101464 4.62515e-20)
(5.33602 0.112767 -1.49139e-20)
(5.32348 0.125227 6.32871e-20)
(5.30955 0.138997 -4.45657e-20)
(5.29411 0.154249 3.89907e-20)
(5.27706 0.171175 -3.52051e-20)
(5.25827 0.189989 -4.86651e-20)
(5.23761 0.210926 0)
(5.21492 0.234253 0)
(5.19004 0.260268 0)
(5.1628 0.289306 -2.27972e-20)
(5.13302 0.321744 -2.68738e-20)
(5.10051 0.358006 3.58574e-20)
(5.06507 0.398567 -4.19006e-20)
(5.02651 0.443964 -2.19318e-20)
(4.98464 0.494798 6.83281e-21)
(4.93925 0.551745 -4.17258e-20)
(4.89018 0.615558 -1.88807e-20)
(4.83726 0.68708 -1.66106e-20)
(4.78035 0.767249 -3.17551e-20)
(4.71934 0.857103 6.79435e-20)
(4.65417 0.957783 -4.03583e-21)
(4.58483 1.07054 -4.86452e-21)
(4.51134 1.19673 2.61725e-20)
(4.43383 1.33781 -1.17676e-20)
(4.35247 1.49534 -1.78934e-20)
(4.26753 1.67095 2.21361e-20)
(4.17937 1.86633 1.35116e-20)
(4.08838 2.08321 0)
(3.99512 2.32322 -1.01772e-20)
(3.89998 2.58828 0)
(3.8042 2.87907 0)
(3.70566 3.19885 8.71738e-21)
(3.5924 3.51801 0)
(3.25928 3.634 0)
(1.98414 2.44796 0)
(5.38242 0.0678598 -4.63951e-20)
(5.37644 0.0764073 0)
(5.36912 0.085543 1.02454e-19)
(5.36084 0.0953598 -5.90792e-20)
(5.35137 0.10607 0)
(5.34068 0.117844 4.66731e-20)
(5.32873 0.130819 -5.83359e-21)
(5.31545 0.145151 7.2634e-21)
(5.30074 0.161021 -8.02562e-21)
(5.28451 0.178625 7.75921e-20)
(5.26664 0.19818 -4.49214e-20)
(5.24701 0.219931 0)
(5.22548 0.24415 -3.10848e-20)
(5.20191 0.27114 4.82917e-21)
(5.17615 0.301244 3.85655e-20)
(5.14805 0.334844 4.49884e-20)
(5.11745 0.372369 -2.36815e-20)
(5.08419 0.414303 4.12123e-20)
(5.0481 0.461184 -4.12676e-21)
(5.00904 0.513619 6.38456e-21)
(4.96688 0.572285 2.26183e-20)
(4.92148 0.637937 0)
(4.87276 0.711417 2.41436e-20)
(4.82065 0.793656 -2.76506e-20)
(4.76514 0.885684 -2.7232e-20)
(4.70627 0.988631 -3.87716e-21)
(4.64412 1.10373 4.24068e-21)
(4.57886 1.23232 -2.04497e-20)
(4.51074 1.37582 1.15356e-20)
(4.4401 1.53576 -1.47036e-20)
(4.36736 1.71374 -1.08643e-20)
(4.29305 1.91139 1.71355e-20)
(4.21776 2.13042 -1.0966e-20)
(4.14224 2.37237 0)
(4.06702 2.63921 5.12129e-21)
(3.99368 2.9313 1.94311e-21)
(3.91961 3.25236 -4.85104e-21)
(3.83048 3.56836 1.31873e-21)
(3.49392 3.66941 -3.74023e-22)
(2.12232 2.43229 -1.29337e-21)
(5.3849 0.0708321 3.6516e-20)
(5.37934 0.0796242 -5.41607e-21)
(5.3725 0.0891657 -4.37809e-20)
(5.36466 0.0993718 1.40816e-21)
(5.35567 0.110493 0)
(5.34553 0.122711 -3.86348e-20)
(5.33419 0.13617 0)
(5.32159 0.151031 -6.93323e-21)
(5.30764 0.16748 7.66066e-21)
(5.29225 0.185718 -4.2327e-20)
(5.27532 0.205968 4.94124e-20)
(5.25675 0.228477 0)
(5.23641 0.253523 5.99804e-20)
(5.21419 0.281415 0)
(5.18996 0.3125 -8.42328e-22)
(5.16359 0.347163 -3.12023e-20)
(5.13494 0.385839 6.94964e-21)
(5.1039 0.429013 3.28048e-20)
(5.07033 0.477226 9.84024e-22)
(5.03415 0.531083 0)
(4.99525 0.591261 0)
(4.95358 0.65851 4.03574e-21)
(4.90911 0.733662 -1.85027e-20)
(4.86186 0.817639 2.19778e-20)
(4.8119 0.911454 1.73647e-20)
(4.75935 1.01621 0)
(4.70443 1.13313 0)
(4.64741 1.26349 0)
(4.58869 1.40869 1.86244e-20)
(4.52874 1.57021 8.72665e-21)
(4.46815 1.74958 5.8101e-21)
(4.40761 1.94838 -7.99881e-21)
(4.34788 2.16826 1.34619e-21)
(4.28994 2.41063 3.30618e-21)
(4.23443 2.67754 -6.7737e-21)
(4.18328 2.96895 0)
(4.13327 3.28908 0)
(4.06709 3.59894 0)
(3.72303 3.68212 1.36672e-21)
(2.24973 2.39629 -1.92966e-22)
(5.38754 0.0743485 -3.44477e-20)
(5.38205 0.0828073 0)
(5.37599 0.0926308 -6.06991e-21)
(5.36864 0.103213 6.95868e-20)
(5.36014 0.114725 4.27149e-22)
(5.35056 0.127361 2.88839e-20)
(5.33985 0.141272 -3.75353e-20)
(5.32795 0.156628 -6.24699e-21)
(5.31477 0.173618 -2.95436e-20)
(5.30025 0.192446 -3.45961e-20)
(5.28429 0.213339 0)
(5.26681 0.236549 1.74972e-20)
(5.2477 0.262358 -2.20699e-20)
(5.22686 0.291077 -2.83463e-20)
(5.20419 0.323056 -4.38903e-20)
(5.17958 0.358684 0)
(5.15292 0.398396 2.62505e-20)
(5.12414 0.442677 -3.63637e-20)
(5.09314 0.492068 5.46766e-21)
(5.05986 0.54717 0)
(5.02427 0.608651 0)
(4.98637 0.677254 -1.40246e-20)
(4.94619 0.753798 0)
(4.90382 0.839184 -1.85502e-20)
(4.85941 0.934401 -2.29107e-20)
(4.81319 1.04053 1.19731e-20)
(4.76548 1.15873 -1.34339e-20)
(4.71666 1.29026 -3.95239e-21)
(4.66727 1.43645 -1.4016e-20)
(4.61791 1.59872 -2.32082e-21)
(4.56932 1.77853 2.52538e-21)
(4.52237 1.97737 -1.37395e-20)
(4.47798 2.19682 5.99864e-21)
(4.43731 2.43817 2.61222e-21)
(4.40112 2.70348 3.44191e-21)
(4.37172 2.99225 5.03126e-22)
(4.34511 3.30932 -5.9506e-22)
(4.3003 3.61004 5.70454e-23)
(3.94398 3.67261 0)
(2.36355 2.34038 -1.6303e-21)
(5.39015 0.0774265 3.4033e-20)
(5.38501 0.0860129 5.00468e-21)
(5.37955 0.0960023 -5.55171e-21)
(5.37275 0.106894 0)
(5.36479 0.118761 0)
(5.35578 0.131785 3.53776e-20)
(5.34571 0.146118 4.79834e-20)
(5.33452 0.161934 -1.22833e-20)
(5.32214 0.179424 3.97989e-20)
(5.3085 0.198797 6.29266e-20)
(5.29354 0.220283 -3.84717e-20)
(5.27717 0.244137 -5.18618e-20)
(5.25931 0.270642 -2.32633e-20)
(5.23988 0.300113 5.22889e-21)
(5.2188 0.3329 -3.90331e-21)
(5.19598 0.369393 1.08235e-20)
(5.17135 0.410026 -7.44876e-21)
(5.14485 0.455282 3.79925e-21)
(5.11644 0.505696 3.01492e-20)
(5.0861 0.561864 -5.1365e-21)