/*--------------------------------*- C++ -*----------------------------------*\
  =========                 |
  \\      /  F ield         | OpenFOAM: The Open Source CFD Toolbox
   \\    /   O peration     | Website:  https://openfoam.org
    \\  /    A nd           | Version:  13
     \\/     M anipulation  |
\*---------------------------------------------------------------------------*/
FoamFile
{
    format      ascii;
    class       volVectorField;
    location    "190";
    object      wallShearStress;
}
// * * * * * * * * * * * * * * * * * * * * * * * * * * * * * * * * * * * * * //

dimensions      [0 2 -2 0 0 0 0];

internalField   uniform (0 0 0);

boundaryField
{
    above
    {
        type            calculated;
        value           uniform (0 0 0);
    }
    top
    {
        type            calculated;
        value           uniform (0 0 0);
    }
    inlet
    {
        type            calculated;
        value           uniform (0 0 0);
    }
    outlet
    {
        type            calculated;
        value           uniform (0 0 0);
    }
    plate
    {
        type            calculated;
        value           nonuniform List<vector> 
340
(
(-0.18649 -0.0798828 0)
(-0.180774 -0.229303 -6.91912e-21)
(-0.198083 -0.370267 6.28075e-21)
(-0.22989 -0.512536 1.6747e-20)
(-0.272336 -0.652642 -1.01447e-20)
(-0.324386 -0.788267 4.43321e-21)
(-0.385467 -0.917961 -3.94557e-21)
(-0.454935 -1.04053 -6.98722e-21)
(-0.532043 -1.15487 0)
(-0.615939 -1.25997 0)
(-0.705654 -1.3549 0)
(-0.800103 -1.43886 -4.25508e-21)
(-0.898088 -1.51116 6.05075e-21)
(-0.998312 -1.57118 -8.47759e-21)
(-1.09938 -1.61845 -4.29631e-21)
(-1.19982 -1.65259 -9.55127e-22)
(-1.29807 -1.67335 3.09722e-21)
(-1.39248 -1.68062 0)
(-1.48135 -1.67441 8.25927e-22)
(-1.56289 -1.65491 -2.87898e-22)
(-1.63525 -1.62241 1.12431e-21)
(-1.69648 -1.57772 0)
(-1.74403 -1.52082 0)
(-1.77649 -1.45199 5.26683e-21)
(-1.79312 -1.37198 -8.50015e-21)
(-1.7932 -1.28208 6.77951e-21)
(-1.77594 -1.18403 -7.27754e-21)
(-1.74069 -1.07982 4.05202e-21)
(-1.68711 -0.9715 0)
(-1.61539 -0.861161 -9.54535e-21)
(-1.52632 -0.750916 1.02413e-20)
(-1.42131 -0.642856 -1.65682e-20)
(-1.30239 -0.539005 1.78167e-20)
(-1.17225 -0.441272 -3.21898e-22)
(-1.03414 -0.351393 -1.01217e-20)
(-0.891839 -0.270883 3.6621e-21)
(-0.749415 -0.200993 -3.66661e-21)
(-0.610976 -0.142669 1.99241e-21)
(-0.480553 -0.0966862 1.07442e-21)
(-0.360433 -0.0625374 5.53255e-22)
(-0.260951 -0.0355535 0)
(-0.187949 -0.0169986 0)
(-0.133654 -0.00815303 0)
(-0.0927346 -0.00471113 0)
(-0.0612499 -0.00351478 0)
(-0.0364325 -0.00287814 0)
(-0.0165388 -0.00214051 0)
(-0.000570508 -0.00122876 0)
(0.0120953 -0.000324726 0)
(0.0219977 0.000377788 0)
(0.0296979 0.000803932 0)
(0.0357213 0.00100338 0)
(0.0404683 0.00108098 0)
(0.044187 0.0011236 0)
(0.0470084 0.00116862 0)
(0.0490148 0.00121256 0)
(0.0502902 0.0012382 0)
(0.0509342 0.00123587 0)
(0.0510468 0.00120943 0)
(0.0507083 0.00117116 0)
(0.049967 0.00113198 0)
(0.0488492 0.00109723 0)
(0.0473687 0.00106741 0)
(0.0455371 0.00104061 0)
(0.0433678 0.001015 0)
(0.0408734 0.000990729 0)
(0.0380594 0.000969063 0)
(0.0349262 0.00095061 0)
(0.0314691 0.000935352 0)
(0.0276798 0.000922681 0)
(0.0235519 0.000911943 0)
(0.0190778 0.000902994 0)
(0.0142507 0.000894588 0)
(0.00907399 0.000884705 0)
(0.00355611 0.000873441 0)
(-0.00229631 0.000860822 0)
(-0.00846916 0.000844993 0)
(-0.0149323 0.00082491 0)
(-0.0216473 0.000800514 0)
(-0.0285673 0.000771145 0)
(-0.0356303 0.000736188 0)
(-0.0427623 0.000695794 0)
(-0.0498823 0.000650405 0)
(-0.0569033 0.000600667 0)
(-0.0637355 0.000547458 0)
(-0.0702886 0.000491864 0)
(-0.0764779 0.000435253 0)
(-0.0822292 0.000379036 0)
(-0.0874813 0.000324453 0)
(-0.0921881 0.000272632 0)
(-0.0963199 0.000224534 0)
(-0.0998649 0.000180829 0)
(-0.102826 0.000141884 0)
(-0.105221 0.000107846 0)
(-0.107077 7.8665e-05 0)
(-0.108431 5.41057e-05 0)
(-0.109326 3.37897e-05 0)
(-0.109807 1.72575e-05 0)
(-0.109918 4.02002e-06 0)
(-0.109703 -6.3952e-06 0)
(-0.109204 -1.44232e-05 0)
(-0.108459 -2.04551e-05 0)
(-0.107504 -2.48378e-05 0)
(-0.106371 -2.78857e-05 0)
(-0.105089 -2.98607e-05 0)
(-0.103683 -3.09846e-05 0)
(-0.102176 -3.14418e-05 0)
(-0.100586 -3.13827e-05 0)
(-0.0989312 -3.09295e-05 0)
(-0.0972252 -3.01876e-05 0)
(-0.0954805 -2.92362e-05 0)
(-0.0937074 -2.8138e-05 0)
(-0.091915 -2.6941e-05 0)
(-0.090111 -2.56845e-05 0)
(-0.0883019 -2.43973e-05 0)
(-0.0864935 -2.31066e-05 0)
(-0.0846902 -2.1829e-05 0)
(-0.0828962 -2.05784e-05 0)
(-0.081114 -1.93582e-05 0)
(-0.0793494 -1.8153e-05 0)
(-0.0776514 -1.70536e-05 0)
(-0.0760444 -1.60829e-05 0)
(-0.0745099 -1.51695e-05 0)
(-0.0730452 -1.43114e-05 0)
(-0.0716457 -1.35196e-05 0)
(-0.0703067 -1.27848e-05 0)
(-0.0690242 -1.21057e-05 0)
(-0.0677941 -1.14766e-05 0)
(-0.0666129 -1.08911e-05 0)
(-0.0654776 -1.03448e-05 0)
(-0.0643854 -9.83699e-06 0)
(-0.0633333 -9.3641e-06 0)
(-0.0623189 -8.9231e-06 0)
(-0.0613398 -8.50993e-06 0)
(-0.0603941 -8.12155e-06 0)
(-0.05948 -7.75776e-06 0)
(-0.0585955 -7.41771e-06 0)
(-0.0577389 -7.09867e-06 0)
(-0.0569085 -6.79846e-06 0)
(-0.0561031 -6.51462e-06 0)
(-0.0553216 -6.24535e-06 0)
(-0.0545627 -5.99198e-06 0)
(-0.0538253 -5.75127e-06 0)
(-0.0531085 -5.52466e-06 0)
(-0.0524111 -5.30963e-06 0)
(-0.0517322 -5.10632e-06 0)
(-0.0510711 -4.9116e-06 0)
(-0.050427 -4.72772e-06 0)
(-0.0497992 -4.55247e-06 0)
(-0.0491869 -4.38652e-06 0)
(-0.0485894 -4.22762e-06 0)
(-0.0480062 -4.07745e-06 0)
(-0.0474365 -3.93327e-06 0)
(-0.04688 -3.79591e-06 0)
(-0.0463361 -3.66434e-06 0)
(-0.0458044 -3.53956e-06 0)
(-0.0452842 -3.41978e-06 0)
(-0.0447753 -3.30558e-06 0)
(-0.044277 -3.19643e-06 0)
(-0.0437891 -3.09171e-06 0)
(-0.0433112 -2.99092e-06 0)
(-0.042843 -2.8944e-06 0)
(-0.0423842 -2.80191e-06 0)
(-0.0419343 -2.71344e-06 0)
(-0.0414932 -2.62869e-06 0)
(-0.0410603 -2.54752e-06 0)
(-0.0406355 -2.46963e-06 0)
(-0.0402185 -2.39464e-06 0)
(-0.039809 -2.32222e-06 0)
(-0.0394069 -2.25241e-06 0)
(-0.0390119 -2.18512e-06 0)
(-0.0386239 -2.12033e-06 0)
(-0.0382426 -2.05788e-06 0)
(-0.0378678 -1.99794e-06 0)
(-0.0374994 -1.93993e-06 0)
(-0.0371371 -1.88411e-06 0)
(-0.0367808 -1.82998e-06 0)
(-0.0364303 -1.77802e-06 0)
(-0.0360855 -1.72769e-06 0)
(-0.0357462 -1.67929e-06 0)
(-0.0354123 -1.63235e-06 0)
(-0.0350835 -1.58719e-06 0)
(-0.0347599 -1.5434e-06 0)
(-0.0344411 -1.5012e-06 0)
(-0.0341272 -1.46032e-06 0)
(-0.0338179 -1.42076e-06 0)
(-0.0335132 -1.38259e-06 0)
(-0.033213 -1.34558e-06 0)
(-0.0329171 -1.30978e-06 0)
(-0.0326254 -1.27512e-06 0)
(-0.0323379 -1.24156e-06 0)
(-0.0320543 -1.20905e-06 0)
(-0.0317748 -1.17757e-06 0)
(-0.031499 -1.14704e-06 0)
(-0.031227 -1.11742e-06 0)
(-0.0309587 -1.08874e-06 0)
(-0.030694 -1.06102e-06 0)
(-0.0304327 -1.03417e-06 0)
(-0.0301749 -1.0081e-06 0)
(-0.0299203 -9.82742e-07 0)
(-0.0296691 -9.58121e-07 0)
(-0.029421 -9.34196e-07 0)
(-0.0291761 -9.10959e-07 0)
(-0.0289343 -8.88328e-07 0)
(-0.0286955 -8.66431e-07 0)
(-0.0284596 -8.45095e-07 0)
(-0.0282266 -8.24464e-07 0)
(-0.0279965 -8.04344e-07 0)
(-0.0277692 -7.84826e-07 0)
(-0.0275445 -7.65774e-07 0)
(-0.0273226 -7.47314e-07 0)
(-0.0271033 -7.29294e-07 0)
(-0.0268865 -7.11853e-07 0)
(-0.0266723 -6.94808e-07 0)
(-0.0264606 -6.78321e-07 0)
(-0.0262513 -6.62186e-07 0)
(-0.0260444 -6.46599e-07 0)
(-0.0258398 -6.3131e-07 0)
(-0.0256376 -6.1658e-07 0)
(-0.0254376 -6.02096e-07 0)
(-0.0252398 -5.88037e-07 0)
(-0.0250442 -5.74363e-07 0)
(-0.0248507 -5.6106e-07 0)
(-0.0246594 -5.48093e-07 0)
(-0.0244701 -5.35458e-07 0)
(-0.0242828 -5.23162e-07 0)
(-0.0240975 -5.11159e-07 0)
(-0.0239142 -4.99438e-07 0)
(-0.0237329 -4.88158e-07 0)
(-0.0235534 -4.76935e-07 0)
(-0.0233758 -4.66288e-07 0)
(-0.0232001 -4.55601e-07 0)
(-0.0230261 -4.45568e-07 0)
(-0.0228539 -4.35441e-07 0)
(-0.0226834 -4.25815e-07 0)
(-0.0225147 -4.1611e-07 0)
(-0.0223476 -4.06994e-07 0)
(-0.0221823 -3.97771e-07 0)
(-0.0220186 -3.89055e-07 0)
(-0.0218565 -3.80239e-07 0)
(-0.021696 -3.72007e-07 0)
(-0.0215372 -3.63561e-07 0)
(-0.0213798 -3.55743e-07 0)
(-0.0212241 -3.47811e-07 0)
(-0.0210698 -3.40176e-07 0)
(-0.020917 -3.32701e-07 0)
(-0.0207657 -3.25432e-07 0)
(-0.0206158 -3.18298e-07 0)
(-0.0204674 -3.11397e-07 0)
(-0.0203204 -3.04619e-07 0)
(-0.0201747 -2.98052e-07 0)
(-0.0200305 -2.91539e-07 0)
(-0.0198876 -2.85265e-07 0)
(-0.019746 -2.7907e-07 0)
(-0.0196057 -2.73094e-07 0)
(-0.0194668 -2.67145e-07 0)
(-0.0193291 -2.61451e-07 0)
(-0.0191927 -2.55797e-07 0)
(-0.0190576 -2.5037e-07 0)
(-0.0189236 -2.44475e-07 0)
(-0.018791 -2.40178e-07 0)
(-0.0186595 -2.34124e-07 0)
(-0.0185292 -2.30077e-07 0)
(-0.0184001 -2.24217e-07 0)
(-0.0182721 -2.20424e-07 0)
(-0.0181454 -2.14756e-07 0)
(-0.0180197 -2.11164e-07 0)
(-0.0178952 -2.0576e-07 0)
(-0.0177718 -2.02271e-07 0)
(-0.0176495 -1.97277e-07 0)
(-0.0175283 -1.93595e-07 0)
(-0.0174081 -1.88594e-07 0)
(-0.0172891 -1.85741e-07 0)
(-0.0171711 -1.80386e-07 0)
(-0.0170543 -1.77919e-07 0)
(-0.0169385 -1.73308e-07 0)
(-0.0168238 -1.69702e-07 0)
(-0.0167102 -1.66075e-07 0)
(-0.0165975 -1.62747e-07 0)
(-0.0164859 -1.59207e-07 0)
(-0.016378 -1.56032e-07 0)
(-0.0162731 -1.5325e-07 0)
(-0.0161679 -1.49973e-07 0)
(-0.0160624 -1.46658e-07 0)
(-0.015957 -1.43242e-07 0)
(-0.0158515 -1.39826e-07 0)
(-0.0157462 -1.36167e-07 0)
(-0.0156412 -1.3267e-07 0)
(-0.0155367 -1.28814e-07 0)
(-0.0154328 -1.24553e-07 0)
(-0.0153296 -1.21852e-07 0)
(-0.0152273 -1.16997e-07 0)
(-0.0151259 -1.13726e-07 0)
(-0.0150257 -1.09095e-07 0)
(-0.0149267 -1.05844e-07 0)
(-0.0148291 -1.01631e-07 0)
(-0.0147329 -9.75957e-08 0)
(-0.0146384 -9.36583e-08 0)
(-0.0145456 -8.95655e-08 0)
(-0.0144548 -8.56702e-08 0)
(-0.0143661 -8.14548e-08 0)
(-0.0142796 -7.75957e-08 0)
(-0.0141957 -7.31897e-08 0)
(-0.0141143 -6.95225e-08 0)
(-0.0140357 -6.47897e-08 0)
(-0.0139602 -6.08817e-08 0)
(-0.0138882 -5.64437e-08 0)
(-0.0138195 -5.24776e-08 0)
(-0.0137536 -4.87875e-08 0)
(-0.0136901 -4.77635e-08 0)
(-0.013628 -4.60665e-08 0)
(-0.0135672 -4.19354e-08 0)
(-0.0135076 -4.49229e-08 0)
(-0.0134499 -3.48867e-08 0)
(-0.0133943 -3.62454e-08 0)
(-0.0133414 -3.38735e-08 0)
(-0.0132915 -3.05424e-08 0)
(-0.0132449 -2.75658e-08 0)
(-0.0132015 -2.48249e-08 0)
(-0.0131606 -2.37357e-08 0)
(-0.0131207 -2.28065e-08 0)
(-0.0130802 -2.38366e-08 0)
(-0.0130376 -2.41738e-08 0)
(-0.0129923 -2.36092e-08 0)
(-0.012944 -2.8934e-08 0)
(-0.0128932 -2.29513e-08 0)
(-0.0128399 -3.16453e-08 0)
(-0.0127854 -2.17828e-08 0)
(-0.0127294 -3.28971e-08 0)
(-0.012673 -2.37127e-08 0)
(-0.0126163 -2.94252e-08 0)
(-0.01256 -2.54141e-08 0)
(-0.0125044 -2.42548e-08 0)
(-0.0124499 -2.34826e-08 0)
(-0.0123964 -2.27134e-08 0)
(-0.0123426 -2.24002e-08 0)
(-0.0122897 -2.4653e-08 0)
(-0.0122206 -1.69843e-08 0)
(-0.0122074 -2.1777e-08 0)
(-0.0120994 -2.30215e-08 0)
)
;
    }
    defaultFaces
    {
        type            empty;
    }
}


// ************************************************************************* //
