/*--------------------------------*- C++ -*----------------------------------*\
  =========                 |
  \\      /  F ield         | OpenFOAM: The Open Source CFD Toolbox
   \\    /   O peration     | Website:  https://openfoam.org
    \\  /    A nd           | Version:  13
     \\/     M anipulation  |
\*---------------------------------------------------------------------------*/
FoamFile
{
    format      ascii;
    class       volScalarField;
    location    "282";
    object      k;
}
// * * * * * * * * * * * * * * * * * * * * * * * * * * * * * * * * * * * * * //

dimensions      [0 2 -2 0 0 0 0];

internalField   nonuniform List<scalar> 
26820
(
0.0390782
0.0385494
0.0380934
0.0376997
0.0373592
0.0370645
0.0368092
0.0390778
0.0385482
0.0380915
0.0376971
0.0373562
0.037061
0.0368052
0.0390769
0.0385457
0.0380875
0.0376921
0.0373501
0.0370541
0.0367974
0.0390756
0.0385419
0.0380817
0.0376845
0.037341
0.0370439
0.0367857
0.0390739
0.0385369
0.0380739
0.0376744
0.0373289
0.0370303
0.0367701
0.0390717
0.0385306
0.0380642
0.0376618
0.0373138
0.0370133
0.0367506
0.0390691
0.0385232
0.0380526
0.0376468
0.0372958
0.0369929
0.0367274
0.0390661
0.0385145
0.0380392
0.0376293
0.0372748
0.0369693
0.0367004
0.0390627
0.0385046
0.0380239
0.0376094
0.037251
0.0369425
0.0366698
0.0390589
0.0384936
0.0380067
0.0375871
0.0372244
0.0369125
0.0366355
0.0390547
0.0384813
0.0379878
0.0375626
0.037195
0.0368793
0.0365977
0.0390501
0.038468
0.0379671
0.0375357
0.0371628
0.0368432
0.0365565
0.0390451
0.0384535
0.0379447
0.0375067
0.0371281
0.036804
0.0365118
0.0390397
0.038438
0.0379206
0.0374755
0.0370907
0.036762
0.0364639
0.0390339
0.0384213
0.0378949
0.0374421
0.0370509
0.0367171
0.0364129
0.0390278
0.0384037
0.0378675
0.0374068
0.0370086
0.0366696
0.0363587
0.0390214
0.038385
0.0378387
0.0373694
0.036964
0.0366193
0.0363016
0.0390146
0.0383654
0.0378083
0.0373301
0.0369171
0.0365666
0.0362416
0.0390075
0.0383448
0.0377765
0.0372889
0.0368682
0.0365112
0.0361792
0.0390001
0.0383233
0.0377432
0.0372456
0.0368166
0.0364518
0.0361154
0.0365768
0.0363582
0.0361658
0.0359981
0.0358544
0.0357347
0.0356402
0.0355731
0.0355381
0.0355376
0.0355613
0.0356072
0.0356757
0.0357679
0.0358855
0.0360305
0.0362057
0.0364143
0.0366604
0.0369484
0.0372867
0.03767
0.038064
0.0384642
0.0388741
0.0393002
0.0397516
0.0402411
0.0407867
0.0414162
0.0421749
0.0431382
0.0444672
0.0464085
0.0501761
0.0556383
0.0638137
0.0661761
0.0301681
0.00669503
0.036573
0.0363547
0.0361626
0.0359952
0.0358517
0.0357323
0.035638
0.035571
0.035536
0.0355357
0.0355595
0.0356056
0.0356742
0.0357665
0.0358842
0.0360293
0.0362046
0.0364132
0.0366594
0.0369473
0.0372855
0.0376694
0.038064
0.0384648
0.0388752
0.0393017
0.0397534
0.0402431
0.0407889
0.0414186
0.0421773
0.0431407
0.0444687
0.0464079
0.0501604
0.0556032
0.0637593
0.0661399
0.0307486
0.00758226
0.0365655
0.0363479
0.0361565
0.0359897
0.0358468
0.0357278
0.0356339
0.0355673
0.0355327
0.0355328
0.0355571
0.0356035
0.0356725
0.0357652
0.0358831
0.0360286
0.0362042
0.0364131
0.0366596
0.0369479
0.0372863
0.0376708
0.0380662
0.0384677
0.0388787
0.0393058
0.0397582
0.0402485
0.040795
0.0414253
0.0421849
0.0431493
0.0444788
0.0464213
0.0501687
0.0556004
0.0637377
0.0661096
0.0315747
0.00877317
0.0365544
0.0363378
0.0361474
0.0359815
0.0358395
0.0357213
0.0356281
0.0355623
0.0355283
0.035529
0.0355539
0.035601
0.0356706
0.0357638
0.0358824
0.0360284
0.0362045
0.0364141
0.0366611
0.03695
0.037289
0.0376746
0.0380709
0.0384734
0.0388853
0.0393133
0.0397665
0.0402578
0.0408053
0.041437
0.0421983
0.0431651
0.0444986
0.0464505
0.0502031
0.0556374
0.0637639
0.066084
0.0324127
0.00997835
0.0365396
0.0363243
0.0361353
0.0359707
0.0358297
0.0357126
0.0356205
0.0355555
0.0355224
0.0355241
0.0355499
0.0355978
0.0356682
0.0357622
0.0358815
0.0360282
0.0362051
0.0364154
0.0366633
0.036953
0.0372927
0.03768
0.0380779
0.0384817
0.0388949
0.0393241
0.0397785
0.040271
0.0408201
0.0414537
0.0422177
0.0431882
0.0445277
0.0464944
0.0502562
0.0557023
0.0638244
0.0660479
0.0331625
0.0110923
0.0365212
0.0363075
0.0361201
0.0359571
0.0358176
0.0357018
0.0356109
0.0355471
0.0355151
0.035518
0.0355449
0.0355939
0.0356652
0.0357602
0.0358804
0.0360281
0.036206
0.0364172
0.036666
0.0369568
0.0372975
0.0376868
0.0380869
0.0384926
0.0389074
0.0393381
0.0397941
0.0402883
0.0408394
0.0414755
0.0422429
0.0432185
0.0445661
0.0465524
0.0503255
0.0557892
0.0639113
0.065994
0.0337963
0.0120923
0.0364992
0.0362875
0.0361021
0.0359409
0.0358032
0.0356889
0.0355994
0.035537
0.0355064
0.0355107
0.035539
0.0355892
0.0356618
0.0357579
0.0358793
0.0360281
0.0362071
0.0364195
0.0366694
0.0369615
0.0373033
0.0376952
0.0380978
0.0385058
0.0389227
0.0393554
0.0398133
0.0403096
0.0408631
0.0415023
0.042274
0.0432561
0.0446136
0.0466245
0.0504107
0.0558962
0.06402
0.0659192
0.034315
0.0129859
0.0364736
0.0362642
0.0360811
0.0359221
0.0357864
0.035674
0.0355862
0.0355254
0.0354963
0.0355023
0.0355321
0.0355839
0.0356579
0.0357554
0.0358781
0.0360282
0.0362085
0.0364222
0.0366736
0.0369672
0.0373103
0.0377051
0.0381107
0.0385215
0.0389409
0.0393759
0.0398361
0.0403349
0.0408913
0.0415343
0.0423111
0.0433011
0.0446707
0.046711
0.0505119
0.0560222
0.0641474
0.0658202
0.0347283
0.013788
0.0364445
0.0362377
0.0360573
0.0359008
0.0357673
0.035657
0.0355712
0.0355122
0.0354849
0.0354928
0.0355245
0.0355779
0.0356536
0.0357526
0.0358768
0.0360285
0.0362102
0.0364255
0.0366785
0.0369738
0.0373184
0.0377167
0.0381257
0.0385396
0.0389618
0.0393995
0.0398625
0.0403642
0.0409241
0.0415715
0.0423544
0.0433536
0.0447377
0.0468126
0.0506293
0.0561668
0.0642909
0.065694
0.0350469
0.0145129
0.036412
0.0362081
0.0360307
0.0358769
0.035746
0.035638
0.0355544
0.0354975
0.0354722
0.0354822
0.035516
0.0355714
0.0356488
0.0357496
0.0358756
0.0360289
0.0362124
0.0364294
0.0366842
0.0369815
0.0373278
0.03773
0.0381429
0.0385603
0.0389857
0.0394265
0.0398926
0.0403977
0.0409615
0.041614
0.0424039
0.043414
0.0448147
0.0469301
0.0507635
0.0563301
0.0644484
0.0655377
0.0352806
0.0151725
0.0363761
0.0361754
0.0360013
0.0358506
0.0357224
0.0356171
0.0355358
0.0354813
0.0354583
0.0354706
0.0355066
0.0355642
0.0356437
0.0357465
0.0358743
0.0360295
0.0362149
0.0364339
0.0366907
0.0369902
0.0373385
0.037745
0.0381623
0.0385837
0.0390127
0.0394569
0.0399264
0.0404353
0.0410037
0.041662
0.04246
0.0434824
0.0449025
0.0470642
0.0509151
0.0565124
0.0646184
0.0653485
0.0354371
0.015776
0.036337
0.0361397
0.0359692
0.0358218
0.0356967
0.0355942
0.0355156
0.0354637
0.0354431
0.0354581
0.0354966
0.0355565
0.0356382
0.0357432
0.0358731
0.0360304
0.0362179
0.0364391
0.0366981
0.037
0.0373504
0.0377619
0.0381841
0.0386098
0.0390428
0.0394908
0.0399642
0.0404773
0.0410507
0.0417156
0.0425227
0.0435593
0.0450014
0.0472161
0.051085
0.0567144
0.0647995
0.0651236
0.0355225
0.0163308
0.0362947
0.0361011
0.0359345
0.0357907
0.035669
0.0355695
0.0354938
0.0354446
0.0354267
0.0354446
0.0354858
0.0355483
0.0356325
0.0357398
0.035872
0.0360316
0.0362215
0.036445
0.0367064
0.037011
0.0373638
0.0377808
0.0382084
0.0386389
0.0390763
0.0395284
0.040006
0.0405238
0.0411029
0.0417751
0.0425925
0.0436449
0.0451121
0.047387
0.0512741
0.0569367
0.0649903
0.0648592
0.0355414
0.0168426
0.0362492
0.0360597
0.0358972
0.0357573
0.0356392
0.035543
0.0354704
0.0354242
0.0354092
0.0354302
0.0354744
0.0355397
0.0356265
0.0357363
0.0358711
0.0360332
0.0362255
0.0364516
0.0367157
0.0370232
0.0373786
0.0378004
0.0382348
0.038671
0.0391132
0.0395698
0.040052
0.0405749
0.0411603
0.0418407
0.0426696
0.0437399
0.0452354
0.0475781
0.0514834
0.0571801
0.0651893
0.064558
0.0354987
0.0173161
0.0362008
0.0360155
0.0358574
0.0357217
0.0356074
0.0355148
0.0354455
0.0354025
0.0353906
0.0354149
0.0354623
0.0355306
0.0356203
0.0357329
0.0358703
0.0360351
0.0362302
0.036459
0.036726
0.0370366
0.0373952
0.0378208
0.0382628
0.0387059
0.0391536
0.0396152
0.0401024
0.040631
0.0412232
0.0419126
0.0427544
0.0438447
0.0453722
0.0477912
0.0517138
0.0574454
0.0653942
0.0641421
0.0353876
0.0177551
0.0361494
0.0359687
0.0358153
0.035684
0.0355737
0.0354849
0.0354192
0.0353795
0.0353709
0.0353989
0.0354497
0.0355212
0.035614
0.0357295
0.0358699
0.0360375
0.0362355
0.0364674
0.0367375
0.0370514
0.0374134
0.0378427
0.0382927
0.0387435
0.0391977
0.0396648
0.0401575
0.0406922
0.0412919
0.0419913
0.0428474
0.0439599
0.0455236
0.0480282
0.0519667
0.0577331
0.0656021
0.0636145
0.0352048
0.0181621
0.0360952
0.0359193
0.0357709
0.0356442
0.0355382
0.0354534
0.0353914
0.0353554
0.0353504
0.0353822
0.0354367
0.0355116
0.0356076
0.0357263
0.0358697
0.0360404
0.0362415
0.0364766
0.0367501
0.0370677
0.0374335
0.0378665
0.0383247
0.0387839
0.0392453
0.0397187
0.0402173
0.0407587
0.0413667
0.0420771
0.0429489
0.0440863
0.0456906
0.0482907
0.0522431
0.058044
0.0658096
0.062989
0.0349508
0.0185403
0.0360384
0.0358675
0.0357242
0.0356025
0.035501
0.0354203
0.0353623
0.0353301
0.0353289
0.0353648
0.0354232
0.0355017
0.0356012
0.0357232
0.0358699
0.0360439
0.0362484
0.0364869
0.036764
0.0370854
0.0374554
0.0378923
0.0383593
0.0388273
0.0392967
0.039777
0.0402823
0.0408309
0.0414479
0.0421704
0.0430597
0.0442247
0.0458747
0.0485851
0.0525455
0.0583786
0.0660126
0.0622776
0.034628
0.0188765
0.0359787
0.0358132
0.0356755
0.0355589
0.0354621
0.0353859
0.035332
0.0353038
0.0353066
0.0353468
0.0354093
0.0354918
0.0355949
0.0357204
0.0358706
0.0360481
0.0362561
0.0364984
0.0367793
0.0371048
0.0374793
0.0379203
0.0383967
0.0388741
0.039352
0.0398399
0.0403525
0.0409091
0.0415358
0.0422717
0.0431804
0.0443762
0.046078
0.0488858
0.052871
0.0587377
0.0662068
0.061488
0.0342367
0.0190734
0.0359194
0.0357566
0.0356243
0.0355134
0.0354217
0.03535
0.0353005
0.0352766
0.0352835
0.0353284
0.0353952
0.0354817
0.0355887
0.035718
0.0358718
0.036053
0.0362648
0.036511
0.036796
0.0371259
0.0375053
0.0379507
0.0384373
0.0389246
0.0394115
0.0399076
0.0404282
0.0409935
0.041631
0.0423815
0.0433117
0.0445417
0.046303
0.0491884
0.0532161
0.0591213
0.0663868
0.0606251
0.0337777
0.0191556
0.0358442
0.0357039
0.0355738
0.0354664
0.0353796
0.0353129
0.0352679
0.0352484
0.0352598
0.0353095
0.0353809
0.0354717
0.0355827
0.0357159
0.0358737
0.0360588
0.0362746
0.0365249
0.0368143
0.0371489
0.0375334
0.0379836
0.0384812
0.0389792
0.0394755
0.0399805
0.0405098
0.0410846
0.0417339
0.0425005
0.0434545
0.0447225
0.0465522
0.0494974
0.0535789
0.0595286
0.0665463
0.0596906
0.0332519
0.0191574
0.0357684
0.0356455
0.0355227
0.0354187
0.0353363
0.0352744
0.0352343
0.0352194
0.0352354
0.0352903
0.0353666
0.0354618
0.0355771
0.0357144
0.0358763
0.0360655
0.0362855
0.0365402
0.0368343
0.0371738
0.0375638
0.0380191
0.0385289
0.0390382
0.0395445
0.0400588
0.0405975
0.0411827
0.0418449
0.0426293
0.0436097
0.0449203
0.0468279
0.0498181
0.0539594
0.0599587
0.0666775
0.0586849
0.032665
0.0191022
0.0356942
0.0355822
0.0354693
0.0353702
0.0352919
0.0352349
0.0351997
0.0351897
0.0352106
0.0352709
0.0353522
0.0354522
0.0355719
0.0357135
0.0358797
0.0360733
0.0362977
0.0365571
0.0368561
0.0372008
0.0375967
0.0380574
0.0385808
0.039102
0.0396189
0.040143
0.0406918
0.0412883
0.0419647
0.0427687
0.0437784
0.0451367
0.0471342
0.0501551
0.0543589
0.06041
0.066771
0.0576055
0.0319978
0.0190339
0.0356208
0.035516
0.0354131
0.0353204
0.0352467
0.0351943
0.0351642
0.0351593
0.0351853
0.0352514
0.035338
0.0354428
0.0355672
0.0357134
0.035884
0.0360821
0.0363113
0.0365756
0.0368798
0.0372301
0.0376323
0.0380988
0.038635
0.0391708
0.039699
0.0402335
0.040793
0.0414019
0.0420938
0.0429196
0.0439621
0.0453738
0.0474664
0.0505116
0.0547793
0.0608809
0.0668156
0.0564475
0.0312365
0.0189765
0.0355472
0.0354482
0.0353545
0.0352692
0.0352006
0.035153
0.035128
0.0351284
0.0351597
0.0352318
0.0353239
0.0354339
0.0355631
0.035714
0.0358894
0.0360923
0.0363264
0.0365959
0.0369056
0.0372619
0.0376706
0.0381435
0.0386913
0.0392444
0.0397854
0.0403309
0.0409018
0.041524
0.0422332
0.043083
0.0441621
0.0456345
0.0478066
0.0508874
0.0552228
0.0613691
0.0667979
0.0552021
0.030379
0.0189283
0.0354729
0.0353792
0.0352938
0.0352165
0.0351536
0.035111
0.0350911
0.035097
0.0351339
0.0352123
0.0353102
0.0354255
0.0355598
0.0357156
0.0358959
0.0361038
0.0363431
0.0366181
0.0369337
0.0372962
0.0377119
0.0381918
0.0387502
0.0393229
0.0398783
0.0404356
0.0410187
0.0416554
0.0423835
0.0432601
0.0443802
0.0459211
0.0481547
0.0512825
0.0556915
0.0618713
0.0667033
0.0538458
0.0294672
0.0188855
0.0353975
0.0353094
0.0352316
0.0351622
0.0351057
0.0350683
0.0350538
0.0350652
0.035108
0.0351931
0.035297
0.0354178
0.0355573
0.0357182
0.0359037
0.0361169
0.0363617
0.0366424
0.0369642
0.0373333
0.0377564
0.0382439
0.0388124
0.0394068
0.0399783
0.0405482
0.0411444
0.0417968
0.0425457
0.0434522
0.0446185
0.0462402
0.0485149
0.0516975
0.0561873
0.0623827
0.0665157
0.0523821
0.0285146
0.0188455
0.035321
0.0352389
0.0351682
0.0351067
0.0350568
0.0350251
0.035016
0.0350331
0.035082
0.0351741
0.0352843
0.0354108
0.0355558
0.0357221
0.0359129
0.0361316
0.0363821
0.0366689
0.0369972
0.0373734
0.0378044
0.0383001
0.0388785
0.039496
0.0400858
0.0406694
0.0412795
0.0419491
0.0427211
0.043661
0.0448792
0.0465696
0.048889
0.0521339
0.056712
0.0628956
0.0662096
0.0508301
0.027528
0.0188067
0.0352432
0.0351676
0.0351039
0.0350501
0.0350072
0.0349813
0.0349779
0.035001
0.0350562
0.0351555
0.0352723
0.0354048
0.0355554
0.0357272
0.0359236
0.0361481
0.0364047
0.0366979
0.0370331
0.0374168
0.0378561
0.0383606
0.0389491
0.0395882
0.0402008
0.0407997
0.0414249
0.0421132
0.0429108
0.0438882
0.0451676
0.0469079
0.049278
0.052594
0.057267
0.0634138
0.06575
0.0491973
0.0265151
0.0187676
0.0351643
0.0350955
0.0350389
0.0349926
0.0349568
0.0349371
0.0349395
0.0349688
0.0350306
0.0351374
0.0352612
0.0353999
0.0355563
0.0357339
0.0359361
0.0361667
0.0364296
0.0367296
0.037072
0.0374636
0.0379117
0.0384258
0.0390249
0.0396837
0.0403244
0.0409401
0.0415814
0.0422903
0.0431163
0.0441362
0.0454712
0.0472567
0.049684
0.0530803
0.0578556
0.0639502
0.0650943
0.0474846
0.0254847
0.0187264
0.0350844
0.0350228
0.0349733
0.0349344
0.0349058
0.0348926
0.0349011
0.0349367
0.0350054
0.03512
0.0352511
0.0353961
0.0355586
0.0357421
0.0359505
0.0361874
0.036457
0.0367641
0.0371142
0.0375142
0.0379716
0.0384959
0.0391062
0.0397835
0.0404528
0.0410912
0.04175
0.0424814
0.0433396
0.0444066
0.0457841
0.0476177
0.0501091
0.0535958
0.0584968
0.064473
0.06419
0.0456885
0.0244466
0.018681
0.0350037
0.0349495
0.0349072
0.0348757
0.0348543
0.0348478
0.0348627
0.0349049
0.0349808
0.0351034
0.0352421
0.0353938
0.0355624
0.0357522
0.0359669
0.0362104
0.036487
0.0368016
0.0371599
0.0375688
0.0380361
0.0385714
0.0391937
0.0398887
0.040585
0.0412514
0.0419328
0.0426894
0.043582
0.0446866
0.0461063
0.0479928
0.0505557
0.0541472
0.0591994
0.0649441
0.0630014
0.0438064
0.0234101
0.0186281
0.0349223
0.0348757
0.0348407
0.0348166
0.0348026
0.0348029
0.0348243
0.0348734
0.0349569
0.0350879
0.0352344
0.0353929
0.0355681
0.0357643
0.0359856
0.0362361
0.03652
0.0368426
0.0372095
0.0376278
0.0381056
0.0386526
0.0392878
0.0400003
0.040722
0.0414163
0.042124
0.0429081
0.0438327
0.0449746
0.0464394
0.0483837
0.051027
0.0547438
0.0599663
0.0653163
0.0615237
0.0418411
0.0223893
0.0185641
0.0348403
0.0348015
0.034774
0.0347574
0.0347506
0.034758
0.0347863
0.0348425
0.0349338
0.0350736
0.0352283
0.0353938
0.0355756
0.0357785
0.0360068
0.0362645
0.0365562
0.0368871
0.0372631
0.0376915
0.0381805
0.0387401
0.0393891
0.0401192
0.0408647
0.041586
0.0423207
0.0431333
0.0440906
0.0452713
0.0467848
0.0487932
0.0515279
0.0553975
0.0607933
0.0655336
0.0597642
0.0397973
0.0213612
0.0184819
0.034758
0.034727
0.0347072
0.034698
0.0346987
0.0347132
0.0347486
0.0348122
0.0349118
0.0350608
0.0352239
0.0353967
0.0355853
0.0357952
0.0360307
0.036296
0.0365959
0.0369356
0.0373213
0.0377603
0.0382612
0.0388342
0.0394981
0.0402462
0.0410145
0.0417616
0.0425231
0.0433649
0.0443563
0.0455785
0.0471452
0.0492243
0.0520649
0.0561218
0.0616651
0.0655331
0.0577426
0.0376808
0.0203138
0.0183731
0.0346754
0.0346523
0.0346403
0.0346387
0.0346468
0.0346687
0.0347114
0.0347828
0.0348911
0.0350498
0.0352215
0.0354016
0.0355973
0.0358144
0.0360574
0.0363308
0.0366393
0.0369883
0.0373842
0.0378346
0.0383482
0.0389356
0.0396155
0.0403821
0.0411724
0.041944
0.0427321
0.0436041
0.0446314
0.0458982
0.047523
0.0496806
0.0526473
0.0569307
0.0625515
0.0652478
0.0554891
0.0355008
0.0192585
0.0182295
0.0345927
0.0345777
0.0345736
0.0345796
0.0345953
0.0346246
0.0346749
0.0347544
0.0348719
0.0350407
0.0352213
0.0354089
0.0356119
0.0358365
0.0360874
0.0363692
0.0366868
0.0370457
0.0374525
0.037915
0.0384421
0.0390449
0.0397421
0.0405278
0.0413392
0.0421343
0.0429492
0.0438524
0.0449176
0.0462328
0.0479211
0.0501669
0.0532882
0.0578359
0.0634032
0.0646102
0.0530376
0.0332708
0.0182107
0.0180453
0.0345101
0.0345032
0.0345071
0.0345208
0.0345441
0.0345812
0.0346393
0.0347273
0.0348545
0.0350339
0.0352235
0.0354187
0.0356293
0.0358617
0.0361209
0.0364116
0.0367387
0.0371081
0.0375265
0.0380018
0.0385434
0.0391628
0.0398788
0.0406841
0.0415159
0.0423338
0.0431756
0.0441114
0.0452172
0.0465847
0.0483426
0.0506899
0.0540053
0.0588411
0.0641484
0.0635547
0.0504167
0.0310089
0.0171857
0.0178186
0.0344277
0.034429
0.034441
0.0344626
0.0344936
0.0345384
0.0346047
0.0347017
0.034839
0.0350297
0.0352285
0.0354313
0.0356497
0.0358904
0.0361583
0.0364583
0.0367956
0.0371761
0.0376068
0.0380959
0.038653
0.0392904
0.0400266
0.040852
0.0417034
0.0425437
0.0434129
0.0443829
0.0455323
0.0469567
0.048791
0.0512598
0.0548202
0.0599362
0.0646866
0.0620168
0.0476541
0.0287381
0.0161979
0.0175538
0.0343456
0.0343552
0.0343754
0.0344049
0.0344437
0.0344965
0.0345712
0.0346774
0.0348256
0.0350278
0.035236
0.0354466
0.035673
0.0359222
0.0361991
0.0365089
0.0368569
0.0372493
0.0376931
0.0381968
0.0387705
0.0394273
0.0401852
0.0410311
0.0419016
0.042764
0.0436615
0.0446679
0.0458644
0.0473509
0.0492708
0.0518927
0.0557564
0.0610812
0.0648933
0.0599887
0.0447294
0.0264822
0.0152589
0.0172705
0.0389936
0.0383105
0.0377252
0.0372232
0.0367914
0.0364203
0.036099
0.0389936
0.0383105
0.0377253
0.0372231
0.0367912
0.0364188
0.0360981
0.0389936
0.0383106
0.0377254
0.0372232
0.0367912
0.0364187
0.0360974
0.0389936
0.0383106
0.0377254
0.0372233
0.0367912
0.0364184
0.0360967
0.0389936
0.0383106
0.0377255
0.0372232
0.0367911
0.0364181
0.036096
0.0389936
0.0383106
0.0377254
0.0372232
0.0367909
0.0364178
0.0360955
0.0389936
0.0383106
0.0377253
0.037223
0.0367907
0.0364174
0.0360949
0.0389936
0.0383105
0.0377252
0.0372228
0.0367904
0.0364169
0.0360943
0.0389936
0.0383104
0.037725
0.0372226
0.03679
0.0364164
0.0360936
0.0389935
0.0383103
0.0377249
0.0372223
0.0367896
0.0364159
0.036093
0.0389935
0.0383102
0.0377247
0.037222
0.0367893
0.0364154
0.0360923
0.0389935
0.0383101
0.0377245
0.0372218
0.0367889
0.0364149
0.0360917
0.0389934
0.03831
0.0377244
0.0372215
0.0367886
0.0364145
0.0360912
0.0389934
0.0383099
0.0377242
0.0372214
0.0367883
0.0364142
0.0360907
0.0389934
0.0383099
0.0377242
0.0372212
0.0367881
0.0364139
0.0360904
0.0389934
0.0383099
0.0377241
0.0372211
0.0367879
0.0364136
0.0360901
0.0389934
0.0383098
0.037724
0.037221
0.0367878
0.0364135
0.0360898
0.0389934
0.0383098
0.037724
0.0372209
0.0367877
0.0364133
0.0360897
0.0389934
0.0383098
0.037724
0.0372209
0.0367876
0.0364132
0.0360895
0.0389934
0.0383098
0.0377239
0.0372208
0.0367876
0.0364131
0.0360894
0.0389934
0.0383098
0.0377239
0.0372208
0.0367875
0.0364131
0.0360893
0.0389934
0.0383098
0.0377239
0.0372208
0.0367875
0.036413
0.0360893
0.0389934
0.0383098
0.0377239
0.0372208
0.0367875
0.036413
0.0360893
0.0389934
0.0383098
0.0377239
0.0372208
0.0367875
0.036413
0.0360892
0.0389934
0.0383098
0.0377239
0.0372208
0.0367874
0.036413
0.0360892
0.0389934
0.0383098
0.0377239
0.0372208
0.0367874
0.036413
0.0360892
0.0389934
0.0383098
0.0377239
0.0372208
0.0367874
0.036413
0.0360892
0.0389934
0.0383098
0.0377239
0.0372208
0.0367874
0.036413
0.0360892
0.0389934
0.0383098
0.0377239
0.0372208
0.0367874
0.036413
0.0360892
0.0389934
0.0383098
0.0377239
0.0372208
0.0367874
0.036413
0.0360892
0.0389934
0.0383098
0.0377239
0.0372208
0.0367874
0.0364129
0.0360892
0.0389934
0.0383098
0.0377239
0.0372208
0.0367874
0.0364129
0.0360891
0.0389934
0.0383098
0.0377239
0.0372207
0.0367874
0.0364129
0.0360891
0.0389934
0.0383098
0.0377239
0.0372207
0.0367874
0.0364129
0.0360891
0.0389934
0.0383098
0.0377239
0.0372207
0.0367874
0.0364129
0.0360891
0.0389934
0.0383098
0.0377239
0.0372207
0.0367874
0.0364129
0.0360891
0.0389934
0.0383098
0.0377239
0.0372207
0.0367874
0.0364129
0.0360891
0.0389934
0.0383098
0.0377239
0.0372207
0.0367874
0.0364129
0.0360891
0.0389934
0.0383098
0.0377239
0.0372207
0.0367874
0.036413
0.0360891
0.0389934
0.0383098
0.0377239
0.0372207
0.0367874
0.036413
0.0360891
0.035918
0.0358497
0.0357793
0.0357062
0.0356306
0.0355527
0.0354727
0.0353908
0.0353074
0.0352227
0.0351369
0.0350501
0.0349627
0.0348747
0.0347864
0.034698
0.0346095
0.0345213
0.0344334
0.0343462
0.0359134
0.0358421
0.0357685
0.0356927
0.0356149
0.0355354
0.0354544
0.0353719
0.0352882
0.0352035
0.0351177
0.0350312
0.034944
0.0348564
0.0347683
0.0346801
0.0345918
0.0345035
0.0344155
0.034328
0.0359125
0.0358412
0.0357677
0.0356922
0.0356147
0.0355354
0.0354546
0.0353723
0.0352887
0.0352039
0.0351181
0.0350314
0.034944
0.0348561
0.0347677
0.0346791
0.0345904
0.0345018
0.0344133
0.0343253
0.0359115
0.03584
0.0357664
0.0356907
0.035613
0.0355336
0.0354525
0.03537
0.0352862
0.0352011
0.0351151
0.0350282
0.0349406
0.0348524
0.0347638
0.034675
0.034586
0.0344971
0.0344084
0.0343201
0.0359107
0.0358391
0.0357653
0.0356895
0.0356117
0.0355322
0.035451
0.0353684
0.0352844
0.0351993
0.0351132
0.0350261
0.0349384
0.0348501
0.0347614
0.0346724
0.0345833
0.0344942
0.0344052
0.0343167
0.0359099
0.0358382
0.0357643
0.0356884
0.0356105
0.0355309
0.0354496
0.0353669
0.0352828
0.0351976
0.0351113
0.0350242
0.0349363
0.0348479
0.0347591
0.0346699
0.0345807
0.0344914
0.0344023
0.0343136
0.0359092
0.0358373
0.0357633
0.0356873
0.0356093
0.0355296
0.0354483
0.0353654
0.0352813
0.035196
0.0351096
0.0350224
0.0349345
0.034846
0.034757
0.0346678
0.0345784
0.0344891
0.0343998
0.034311
0.0359084
0.0358364
0.0357623
0.0356862
0.0356081
0.0355283
0.0354469
0.035364
0.0352798
0.0351944
0.035108
0.0350207
0.0349327
0.0348441
0.0347551
0.0346658
0.0345764
0.0344869
0.0343976
0.0343086
0.0359076
0.0358355
0.0357613
0.0356851
0.035607
0.0355271
0.0354456
0.0353626
0.0352784
0.0351929
0.0351065
0.0350191
0.0349311
0.0348424
0.0347533
0.034664
0.0345745
0.034485
0.0343956
0.0343065
0.0359069
0.0358346
0.0357603
0.035684
0.0356058
0.0355258
0.0354443
0.0353613
0.035277
0.0351915
0.035105
0.0350176
0.0349295
0.0348408
0.0347517
0.0346623
0.0345727
0.0344832
0.0343938
0.0343047
0.0359061
0.0358337
0.0357593
0.0356829
0.0356047
0.0355246
0.035443
0.03536
0.0352756
0.0351901
0.0351035
0.0350161
0.034928
0.0348393
0.0347502
0.0346607
0.0345712
0.0344816
0.0343921
0.034303
0.0359054
0.0358329
0.0357584
0.0356819
0.0356036
0.0355235
0.0354418
0.0353587
0.0352743
0.0351888
0.0351022
0.0350148
0.0349266
0.0348379
0.0347488
0.0346593
0.0345697
0.0344801
0.0343907
0.0343015
0.0359047
0.0358322
0.0357576
0.035681
0.0356025
0.0355224
0.0354407
0.0353575
0.0352731
0.0351875
0.0351009
0.0350135
0.0349253
0.0348366
0.0347475
0.034658
0.0345685
0.0344789
0.0343894
0.0343003
0.0359042
0.0358315
0.0357568
0.0356801
0.0356016
0.0355214
0.0354396
0.0353564
0.035272
0.0351864
0.0350998
0.0350123
0.0349242
0.0348355
0.0347463
0.0346569
0.0345674
0.0344778
0.0343883
0.0342992
0.0359037
0.0358309
0.035756
0.0356793
0.0356007
0.0355204
0.0354386
0.0353554
0.0352709
0.0351853
0.0350987
0.0350112
0.0349231
0.0348344
0.0347453
0.0346559
0.0345664
0.0344768
0.0343874
0.0342983
0.0359033
0.0358303
0.0357554
0.0356785
0.0355998
0.0355195
0.0354376
0.0353544
0.0352699
0.0351842
0.0350976
0.0350102
0.0349221
0.0348334
0.0347444
0.034655
0.0345655
0.034476
0.0343866
0.0342976
0.035903
0.0358298
0.0357547
0.0356778
0.035599
0.0355186
0.0354367
0.0353534
0.0352689
0.0351832
0.0350966
0.0350092
0.0349211
0.0348325
0.0347435
0.0346542
0.0345647
0.0344753
0.034386
0.034297
0.0359027
0.0358294
0.0357541
0.035677
0.0355982
0.0355177
0.0354357
0.0353524
0.0352679
0.0351822
0.0350957
0.0350083
0.0349202
0.0348316
0.0347427
0.0346534
0.034564
0.0344747
0.0343854
0.0342965
0.0359024
0.0358289
0.0357535
0.0356763
0.0355974
0.0355168
0.0354348
0.0353514
0.0352668
0.0351812
0.0350947
0.0350073
0.0349193
0.0348308
0.0347419
0.0346527
0.0345634
0.0344741
0.0343849
0.0342961
0.0359022
0.0358285
0.0357529
0.0356756
0.0355965
0.0355159
0.0354338
0.0353504
0.0352658
0.0351802
0.0350936
0.0350063
0.0349184
0.0348299
0.0347411
0.034652
0.0345628
0.0344736
0.0343845
0.0342958
0.035902
0.0358281
0.0357523
0.0356748
0.0355956
0.0355149
0.0354327
0.0353493
0.0352647
0.0351791
0.0350926
0.0350053
0.0349174
0.034829
0.0347403
0.0346513
0.0345622
0.0344731
0.0343842
0.0342955
0.0359018
0.0358276
0.0357517
0.035674
0.0355946
0.0355138
0.0354316
0.0353481
0.0352635
0.0351779
0.0350915
0.0350042
0.0349164
0.0348281
0.0347395
0.0346506
0.0345616
0.0344726
0.0343838
0.0342953
0.0359016
0.0358272
0.035751
0.0356731
0.0355936
0.0355127
0.0354304
0.0353469
0.0352622
0.0351767
0.0350902
0.0350031
0.0349154
0.0348271
0.0347386
0.0346498
0.034561
0.0344722
0.0343835
0.0342951
0.0359014
0.0358267
0.0357502
0.0356721
0.0355925
0.0355114
0.0354291
0.0353455
0.0352609
0.0351753
0.0350889
0.0350018
0.0349142
0.0348261
0.0347377
0.0346491
0.0345604
0.0344717
0.0343832
0.034295
0.0359012
0.0358261
0.0357494
0.0356711
0.0355913
0.0355101
0.0354276
0.035344
0.0352594
0.0351738
0.0350875
0.0350005
0.0349129
0.034825
0.0347367
0.0346482
0.0345597
0.0344712
0.0343828
0.0342948
0.035901
0.0358255
0.0357485
0.0356699
0.0355899
0.0355086
0.035426
0.0353424
0.0352577
0.0351722
0.0350859
0.034999
0.0349116
0.0348237
0.0347356
0.0346473
0.0345589
0.0344706
0.0343825
0.0342946
0.0359008
0.0358249
0.0357475
0.0356687
0.0355885
0.035507
0.0354243
0.0353406
0.0352559
0.0351704
0.0350842
0.0349973
0.03491
0.0348224
0.0347344
0.0346463
0.0345581
0.03447
0.0343821
0.0342945
0.0359005
0.0358242
0.0357465
0.0356673
0.0355868
0.0355052
0.0354224
0.0353386
0.0352539
0.0351684
0.0350823
0.0349955
0.0349084
0.0348209
0.0347331
0.0346452
0.0345573
0.0344694
0.0343817
0.0342944
0.0359002
0.0358234
0.0357453
0.0356658
0.0355851
0.0355032
0.0354202
0.0353364
0.0352517
0.0351662
0.0350802
0.0349936
0.0349065
0.0348192
0.0347317
0.034644
0.0345563
0.0344687
0.0343813
0.0342942
0.0358999
0.0358226
0.035744
0.0356641
0.0355831
0.035501
0.0354179
0.035334
0.0352492
0.0351638
0.0350778
0.0349914
0.0349045
0.0348174
0.0347301
0.0346427
0.0345552
0.0344679
0.0343808
0.034294
0.0358996
0.0358216
0.0357425
0.0356622
0.0355809
0.0354986
0.0354153
0.0353313
0.0352465
0.0351612
0.0350753
0.034989
0.0349023
0.0348154
0.0347283
0.0346412
0.0345541
0.0344671
0.0343803
0.0342939
0.0358992
0.0358206
0.0357409
0.0356602
0.0355785
0.0354959
0.0354125
0.0353283
0.0352436
0.0351582
0.0350725
0.0349863
0.0348998
0.0348132
0.0347264
0.0346396
0.0345528
0.0344662
0.0343797
0.0342937
0.0358988
0.0358194
0.0357391
0.0356579
0.0355758
0.0354929
0.0354093
0.0353251
0.0352403
0.035155
0.0350693
0.0349833
0.0348971
0.0348107
0.0347243
0.0346378
0.0345514
0.0344651
0.0343791
0.0342934
0.0358984
0.0358182
0.0357372
0.0356554
0.0355729
0.0354897
0.0354058
0.0353215
0.0352367
0.0351514
0.0350659
0.0349801
0.0348941
0.034808
0.0347219
0.0346358
0.0345498
0.034464
0.0343784
0.0342932
0.0358979
0.0358168
0.035735
0.0356526
0.0355696
0.0354861
0.035402
0.0353175
0.0352326
0.0351475
0.0350621
0.0349765
0.0348908
0.034805
0.0347193
0.0346336
0.0345481
0.0344628
0.0343777
0.034293
0.0358974
0.0358152
0.0357327
0.0356496
0.035566
0.0354821
0.0353977
0.0353131
0.0352282
0.0351431
0.0350579
0.0349725
0.0348871
0.0348017
0.0347164
0.0346312
0.0345462
0.0344614
0.0343769
0.0342927
0.0358968
0.0358135
0.03573
0.0356462
0.0355621
0.0354777
0.035393
0.0353082
0.0352233
0.0351383
0.0350532
0.0349681
0.0348831
0.0347981
0.0347133
0.0346286
0.0345441
0.0344599
0.0343759
0.0342924
0.0358961
0.0358116
0.0357271
0.0356425
0.0355577
0.0354728
0.0353878
0.0353029
0.0352179
0.0351329
0.0350481
0.0349633
0.0348786
0.0347941
0.0347097
0.0346256
0.0345418
0.0344582
0.0343749
0.034292
0.0358954
0.0358096
0.0357239
0.0356383
0.0355528
0.0354674
0.0353821
0.0352969
0.0352119
0.035127
0.0350424
0.0349579
0.0348736
0.0347896
0.0347059
0.0346224
0.0345392
0.0344563
0.0343738
0.0342917
0.0358946
0.0358072
0.0357203
0.0356338
0.0355475
0.0354615
0.0353758
0.0352904
0.0352053
0.0351205
0.0350361
0.034952
0.0348682
0.0347847
0.0347016
0.0346188
0.0345364
0.0344543
0.0343726
0.0342913
0.0169725
0.0165912
0.0162622
0.0160248
0.0158641
0.0157541
0.0156738
0.0156104
0.0155583
0.0155152
0.0154797
0.0154502
0.0154251
0.015403
0.015383
0.0153647
0.0153481
0.0153331
0.0153201
0.0153087
0.0152984
0.0152891
0.0152807
0.0152734
0.015267
0.0152617
0.0152572
0.0152534
0.0152504
0.015248
0.0152461
0.0152447
0.0152437
0.015243
0.0152425
0.0152422
0.015242
0.0152417
0.0152412
0.0152405
0.0152394
0.0152378
0.0152357
0.0152329
0.0152293
0.015225
0.0152198
0.0152139
0.0152072
0.0151998
0.0151917
0.0151831
0.0151739
0.0151643
0.0151543
0.0151442
0.0151338
0.0151234
0.0151131
0.0151027
0.0150924
0.0150823
0.0150723
0.0150624
0.0150528
0.0150434
0.0150342
0.0150253
0.0150167
0.0150084
0.0150004
0.0149926
0.0149852
0.014978
0.0149712
0.0149646
0.0149583
0.0149523
0.0149466
0.0149411
0.0144367
0.0138161
0.0133373
0.0129787
0.0127092
0.0124986
0.0123245
0.0121748
0.0120431
0.0119256
0.0118187
0.0117191
0.0116248
0.0115351
0.0114498
0.0113691
0.0112927
0.0112208
0.0111517
0.0110857
0.011025
0.0109701
0.0109209
0.0108774
0.01084
0.0108084
0.0107818
0.0107598
0.0107421
0.010728
0.0107171
0.0107089
0.010703
0.0106989
0.0106961
0.0106941
0.0106922
0.0106898
0.0106863
0.0106811
0.0106734
0.0106625
0.0106479
0.0106291
0.0106057
0.0105775
0.0105443
0.0105064
0.0104638
0.010417
0.0103663
0.0103122
0.010255
0.0101953
0.0101337
0.0100707
0.0100068
0.00994254
0.00987804
0.00981388
0.00975036