/*--------------------------------*- C++ -*----------------------------------*\
  =========                 |
  \\      /  F ield         | OpenFOAM: The Open Source CFD Toolbox
   \\    /   O peration     | Website:  https://openfoam.org
    \\  /    A nd           | Version:  13
     \\/     M anipulation  |
\*---------------------------------------------------------------------------*/
FoamFile
{
    format      ascii;
    class       volScalarField;
    location    "282";
    object      nut;
}
// * * * * * * * * * * * * * * * * * * * * * * * * * * * * * * * * * * * * * //

dimensions      [0 2 -1 0 0 0 0];

internalField   nonuniform List<scalar> 
26820
(
0.000179894
0.000179697
0.000179525
0.000179375
0.000179246
0.000179134
0.000179038
0.000179894
0.000179696
0.000179524
0.000179374
0.000179245
0.000179132
0.000179036
0.000179893
0.000179695
0.000179522
0.000179372
0.000179242
0.00017913
0.000179033
0.000179893
0.000179694
0.00017952
0.000179369
0.000179239
0.000179126
0.000179029
0.000179892
0.000179692
0.000179517
0.000179366
0.000179234
0.000179121
0.000179023
0.000179891
0.00017969
0.000179514
0.000179361
0.000179229
0.000179114
0.000179016
0.00017989
0.000179687
0.00017951
0.000179355
0.000179222
0.000179106
0.000179007
0.000179889
0.000179684
0.000179505
0.000179349
0.000179214
0.000179097
0.000178996
0.000179888
0.00017968
0.000179499
0.000179341
0.000179205
0.000179087
0.000178985
0.000179887
0.000179676
0.000179492
0.000179333
0.000179195
0.000179076
0.000178971
0.000179885
0.000179672
0.000179485
0.000179324
0.000179183
0.000179063
0.000178957
0.000179884
0.000179667
0.000179478
0.000179314
0.000179171
0.000179049
0.000178941
0.000179882
0.000179661
0.000179469
0.000179303
0.000179158
0.000179034
0.000178924
0.00017988
0.000179656
0.00017946
0.000179291
0.000179144
0.000179018
0.000178906
0.000179878
0.00017965
0.000179451
0.000179278
0.000179128
0.000179001
0.000178886
0.000179876
0.000179643
0.000179441
0.000179265
0.000179112
0.000178983
0.000178865
0.000179873
0.000179636
0.00017943
0.000179251
0.000179095
0.000178963
0.000178843
0.000179871
0.000179629
0.000179418
0.000179236
0.000179077
0.000178943
0.00017882
0.000179868
0.000179621
0.000179407
0.00017922
0.000179059
0.000178922
0.000178796
0.000179865
0.000179613
0.000179394
0.000179204
0.000179039
0.000178898
0.000178773
0.000178952
0.000178874
0.000178809
0.000178758
0.000178722
0.000178702
0.000178705
0.000178738
0.000178821
0.000166876
0.00013648
0.000111704
9.14986e-05
7.49751e-05
6.14575e-05
5.04006e-05
4.13553e-05
3.39543e-05
2.78981e-05
2.29422e-05
1.88881e-05
1.55664e-05
1.28313e-05
1.05788e-05
8.72531e-06
7.20196e-06
5.95151e-06
4.9265e-06
4.08772e-06
3.40296e-06
2.84605e-06
2.39609e-06
2.03837e-06
1.76121e-06
1.58284e-06
1.46532e-06
1.41422e-06
1.24775e-06
9.49765e-08
2.48697e-09
0.000178951
0.000178873
0.000178808
0.000178757
0.00017872
0.000178701
0.000178703
0.000178736
0.000178819
0.000167378
0.000136902
0.000112043
9.1767e-05
7.51875e-05
6.16265e-05
5.05359e-05
4.14642e-05
3.40424e-05
2.797e-05
2.30013e-05
1.89369e-05
1.56075e-05
1.28661e-05
1.06084e-05
8.75066e-06
7.22376e-06
5.97034e-06
4.94285e-06
4.10199e-06
3.41545e-06
2.85705e-06
2.40583e-06
2.04699e-06
1.76883e-06
1.58916e-06
1.47001e-06
1.41596e-06
1.24594e-06
9.64809e-08
2.81655e-09
0.000178948
0.00017887
0.000178805
0.000178754
0.000178718
0.000178699
0.000178701
0.000178734
0.000178817
0.000167501
0.000136995
0.000112113
9.18216e-05
7.52314e-05
6.1663e-05
5.05671e-05
4.14914e-05
3.40665e-05
2.79916e-05
2.30208e-05
1.89546e-05
1.56237e-05
1.2881e-05
1.06221e-05
8.76313e-06
7.23512e-06
5.98067e-06
4.95222e-06
4.1105e-06
3.42321e-06
2.86412e-06
2.41229e-06
2.0529e-06
1.77423e-06
1.5937e-06
1.47319e-06
1.41662e-06
1.24513e-06
9.89027e-08
3.25893e-09
0.000178943
0.000178866
0.000178802
0.000178751
0.000178715
0.000178696
0.000178699
0.000178733
0.000178816
0.000167501
0.000136995
0.000112119
9.18327e-05
7.52462e-05
6.16802e-05
5.05856e-05
4.15106e-05
3.40858e-05
2.80106e-05
2.30392e-05
1.8972e-05
1.56402e-05
1.28964e-05
1.06363e-05
8.77606e-06
7.24681e-06
5.99119e-06
4.96165e-06
4.11894e-06
3.43076e-06
2.8709e-06
2.41839e-06
2.05844e-06
1.77938e-06
1.59824e-06
1.47685e-06
1.41869e-06
1.24678e-06
1.01344e-07
3.70661e-09
0.000178938
0.000178861
0.000178797
0.000178747
0.000178712
0.000178693
0.000178696
0.00017873
0.000178814
0.000167694
0.000137163
0.000112264
9.19597e-05
7.53567e-05
6.17764e-05
5.06696e-05
4.1584e-05
3.41501e-05
2.8067e-05
2.30887e-05
1.90155e-05
1.56788e-05
1.29305e-05
1.06662e-05
8.80236e-06
7.26981e-06
6.01126e-06
4.97917e-06
4.13423e-06
3.44413e-06
2.88263e-06
2.42875e-06
2.06768e-06
1.78794e-06
1.60601e-06
1.48397e-06
1.42482e-06
1.25224e-06
1.03403e-07
4.12038e-09
0.000178931
0.000178854
0.000178791
0.000178742
0.000178707
0.000178689
0.000178693
0.000178727
0.000178812
0.000167919
0.00013736
0.000112435
9.21091e-05
7.54871e-05
6.18904e-05
5.07695e-05
4.16717e-05
3.42271e-05
2.81348e-05
2.31484e-05
1.9068e-05
1.57255e-05
1.29719e-05
1.07028e-05
8.83442e-06
7.29785e-06
6.03573e-06
5.00049e-06
4.1528e-06
3.46033e-06
2.89681e-06
2.44123e-06
2.07881e-06
1.79832e-06
1.61549e-06
1.4929e-06
1.43314e-06
1.25953e-06
1.04961e-07
4.49186e-09
0.000178922
0.000178846
0.000178784
0.000178735
0.000178701
0.000178684
0.000178688
0.000178724
0.000178809
0.000168145
0.000137559
0.000112612
9.22655e-05
7.56257e-05
6.20132e-05
5.08783e-05
4.17681e-05
3.43126e-05
2.82105e-05
2.32155e-05
1.91274e-05
1.57785e-05
1.30191e-05
1.07445e-05
8.87115e-06
7.33002e-06
6.06381e-06
5.02494e-06
4.17407e-06
3.47883e-06
2.91295e-06
2.45542e-06
2.09143e-06
1.81012e-06
1.62626e-06
1.50307e-06
1.44289e-06
1.268e-06
1.06017e-07
4.82381e-09
0.000178912
0.000178837
0.000178776
0.000178728
0.000178695
0.000178678
0.000178683
0.00017872
0.000178806
0.000168395
0.000137781
0.000112809
9.24421e-05
7.5783e-05
6.21532e-05
5.10029e-05
4.18788e-05
3.4411e-05
2.82979e-05
2.32931e-05
1.91961e-05
1.58399e-05
1.30738e-05
1.07929e-05
8.91371e-06
7.3673e-06
6.09634e-06
5.05324e-06
4.19865e-06
3.50019e-06
2.93155e-06
2.47173e-06
2.10594e-06
1.82371e-06
1.63862e-06
1.51472e-06
1.45421e-06
1.27787e-06
1.06606e-07
5.12176e-09
0.000178901
0.000178827
0.000178767
0.00017872
0.000178687
0.000178672
0.000178678
0.000178715
0.000178803
0.000168676
0.000138031
0.000113033
9.26419e-05
7.59613e-05
6.23122e-05
5.11446e-05
4.2005e-05
3.45232e-05
2.83976e-05
2.33817e-05
1.92746e-05
1.59102e-05
1.31364e-05
1.08483e-05
8.96249e-06
7.41004e-06
6.13363e-06
5.0857e-06
4.22684e-06
3.52467e-06
2.95287e-06
2.49043e-06
2.12258e-06
1.83934e-06
1.65283e-06
1.52805e-06
1.46727e-06
1.28939e-06
1.06771e-07
5.39105e-09
0.000178888
0.000178815
0.000178756
0.00017871
0.000178679
0.000178664
0.000178672
0.00017871
0.000178799
0.000168985
0.000138307
0.00011328
9.28634e-05
7.61594e-05
6.24892e-05
5.13026e-05
4.21459e-05
3.46487e-05
2.85093e-05
2.34811e-05
1.93628e-05
1.59892e-05
1.32069e-05
1.09108e-05
9.01752e-06
7.45829e-06
6.17577e-06
5.12239e-06
4.25874e-06
3.55239e-06
2.97703e-06
2.51165e-06
2.1415e-06
1.85718e-06
1.66902e-06
1.54319e-06
1.48216e-06
1.30279e-06
1.06553e-07
5.63606e-09
0.000178874
0.000178803
0.000178745
0.0001787
0.00017867
0.000178657
0.000178665
0.000178705
0.000178796
0.000169322
0.000138609
0.000113551
9.31067e-05
7.63772e-05
6.26842e-05
5.1477e-05
4.23016e-05
3.47876e-05
2.86331e-05
2.35914e-05
1.94608e-05
1.60772e-05
1.32854e-05
1.09804e-05
9.07893e-06
7.51218e-06
6.22289e-06
5.16345e-06
4.29447e-06
3.58348e-06
3.00415e-06
2.53552e-06
2.16283e-06
1.87736e-06
1.68733e-06
1.56025e-06
1.49898e-06
1.31828e-06
1.05986e-07
5.86024e-09
0.000178859
0.000178789
0.000178732
0.000178689
0.00017866
0.000178648
0.000178658
0.000178699
0.000178791
0.000169686
0.000138937
0.000113846
9.33721e-05
7.66153e-05
6.28975e-05
5.16679e-05
4.24723e-05
3.49401e-05
2.87692e-05
2.37127e-05
1.95687e-05
1.61741e-05
1.33721e-05
1.10574e-05
9.14692e-06
7.5719e-06
6.27515e-06
5.20906e-06
4.3342e-06
3.61809e-06
3.03441e-06
2.56219e-06
2.18674e-06
1.90007e-06
1.70791e-06
1.57938e-06
1.51788e-06
1.33616e-06
1.05101e-07
6.06632e-09
0.000178843
0.000178774
0.000178719
0.000178677
0.000178649
0.000178639
0.00017865
0.000178693
0.000178787
0.000170078
0.000139292
0.000114165
9.366e-05
7.68737e-05
6.31292e-05
5.18756e-05
4.26582e-05
3.51062e-05
2.89176e-05
2.38453e-05
1.96866e-05
1.62804e-05
1.34673e-05
1.1142e-05
9.22167e-06
7.63765e-06
6.33276e-06
5.25939e-06
4.37811e-06
3.65642e-06
3.06796e-06
2.59184e-06
2.21339e-06
1.92549e-06
1.73093e-06
1.60072e-06
1.53904e-06
1.35687e-06
1.03924e-07
6.25642e-09
0.000178825
0.000178758
0.000178704
0.000178664
0.000178638
0.000178629
0.000178641
0.000178686
0.000178783
0.000170498
0.000139672
0.000114509
9.39702e-05
7.71525e-05
6.33795e-05
5.21e-05
4.28593e-05
3.52862e-05
2.90785e-05
2.39891e-05
1.98149e-05
1.63954e-05
1.35708e-05
1.12343e-05
9.3034e-06
7.70963e-06
6.39591e-06
5.31465e-06
4.4264e-06
3.69863e-06
3.10501e-06
2.62465e-06
2.24299e-06
1.95385e-06
1.75655e-06
1.62441e-06
1.56263e-06
1.3792e-06
1.02482e-07
6.43232e-09
0.000178806
0.00017874
0.000178689
0.00017865
0.000178626
0.000178618
0.000178633
0.000178679
0.000178778
0.000170944
0.000140078
0.000114877
9.43027e-05
7.74517e-05
6.36483e-05
5.23413e-05
4.30756e-05
3.548e-05
2.9252e-05
2.41444e-05
1.99535e-05
1.65195e-05
1.36827e-05
1.13345e-05
9.3923e-06
7.78804e-06
6.46481e-06
5.37504e-06
4.47927e-06
3.74495e-06
3.14575e-06
2.66082e-06
2.27574e-06
1.98538e-06
1.78498e-06
1.65076e-06
1.58886e-06
1.31958e-06
1.00761e-07
6.59539e-09
0.000178786
0.000178722
0.000178673
0.000178636
0.000178613
0.000178607
0.000178623
0.000178672
0.000178774
0.000171416
0.00014051
0.000115269
9.46574e-05
7.77713e-05
6.39358e-05
5.25995e-05
4.33073e-05
3.56878e-05
2.94382e-05
2.43112e-05
2.01028e-05
1.66529e-05
1.38032e-05
1.14427e-05
9.48854e-06
7.87312e-06
6.5397e-06
5.4408e-06
4.53695e-06
3.79559e-06
3.1904e-06
2.70059e-06
2.31189e-06
2.02037e-06
1.81645e-06
1.67996e-06
1.618e-06
1.25701e-06
9.87683e-08
6.7466e-09
0.000178765
0.000178703
0.000178655
0.000178621
0.0001786
0.000178596
0.000178614
0.000178665
0.000178769
0.000171914
0.000140967
0.000115684
9.50343e-05
7.81112e-05
6.42417e-05
5.28747e-05
4.35545e-05
3.59097e-05
2.96373e-05
2.44897e-05
2.02628e-05
1.6796e-05
1.39326e-05
1.1559e-05
9.59234e-06
7.96509e-06
6.62083e-06
5.51218e-06
4.59969e-06
3.8508e-06
3.23922e-06
2.74421e-06
2.3517e-06
2.05911e-06
1.85122e-06
1.71225e-06
1.65037e-06
1.19232e-06
9.65187e-08
6.88708e-09
0.000178743
0.000178683
0.000178637
0.000178605
0.000178586
0.000178584
0.000178604
0.000178658
0.000178764
0.000172437
0.00014145
0.000116124
9.54333e-05
7.84714e-05
6.45663e-05
5.31667e-05
4.3817e-05
3.61456e-05
2.98492e-05
2.468e-05
2.04336e-05
1.6949e-05
1.40711e-05
1.16838e-05
9.70391e-06
8.06421e-06
6.70845e-06
5.58944e-06
4.66777e-06
3.91087e-06
3.29249e-06
2.79196e-06
2.39548e-06
2.10214e-06
1.8896e-06
1.74785e-06
1.68629e-06
1.12626e-06
9.40353e-08
7.01196e-09
0.00017872
0.000178662
0.000178618
0.000178588
0.000178571
0.000178571
0.000178594
0.00017865
0.00017876
0.000172986
0.000141957
0.000116587
9.58543e-05
7.88519e-05
6.49094e-05
5.34758e-05
4.40951e-05
3.63957e-05
3.00741e-05
2.48822e-05
2.06154e-05
1.71121e-05
1.42191e-05
1.18173e-05
9.82353e-06
8.17072e-06
6.80286e-06
5.67288e-06
4.74148e-06
3.97608e-06
3.3505e-06
2.84415e-06
2.4436e-06
2.14858e-06
1.93177e-06
1.78705e-06
1.72617e-06
1.0595e-06
9.13341e-08
7.0851e-09
0.000178698
0.00017864
0.000178599
0.000178571
0.000178556
0.000178559
0.000178583
0.000178642
0.000178756
0.000173561
0.000142489
0.000117074
9.62972e-05
7.92525e-05
6.5271e-05
5.38017e-05
4.43887e-05
3.666e-05
3.03121e-05
2.50964e-05
2.08083e-05
1.72855e-05
1.43767e-05
1.19598e-05
9.95148e-06
8.28493e-06
6.90435e-06
5.76282e-06
4.82114e-06
4.04677e-06
3.41359e-06
2.90114e-06
2.49648e-06
2.19851e-06
1.97788e-06
1.83014e-06
1.77049e-06
9.9259e-07
8.84333e-08
7.11565e-09
0.000178668
0.00017862
0.000178579
0.000178553
0.000178541
0.000178545
0.000178572
0.000178634
0.000178751
0.00017416
0.000143046
0.000117584
9.67619e-05
7.96732e-05
6.5651e-05
5.41446e-05
4.46978e-05
3.69386e-05
3.05632e-05
2.53228e-05
2.10126e-05
1.74694e-05
1.45443e-05
1.21116e-05
1.00881e-05
8.40715e-06
7.01324e-06
5.8596e-06
4.90712e-06
4.12331e-06
3.48216e-06
2.96334e-06
2.55461e-06
2.2524e-06
2.02816e-06
1.87746e-06
1.81989e-06
9.26014e-07
8.53467e-08
7.1163e-09
0.000178639
0.000178597
0.00017856
0.000178535
0.000178525
0.000178532
0.000178561
0.000178627
0.000178748
0.000174787
0.000143628
0.000118117
9.72483e-05
8.01139e-05
6.60494e-05
5.45043e-05
4.50224e-05
3.72315e-05
3.08276e-05
2.55615e-05
2.12282e-05
1.76639e-05
1.47222e-05
1.22731e-05
1.02337e-05
8.53771e-06
7.12989e-06
5.96358e-06
4.99979e-06
4.2061e-06
3.55663e-06
3.0312e-06
2.61849e-06
2.3108e-06
2.08298e-06
1.92941e-06
1.87522e-06
8.60321e-07
8.21408e-08
7.09578e-09
0.00017861
0.000178573
0.000178539
0.000178517
0.000178509
0.000178518
0.000178551
0.000178619
0.000178744
0.00017544
0.000144235
0.000118673
9.77563e-05
8.05745e-05
6.64661e-05
5.48809e-05
4.53625e-05
3.75388e-05
3.11052e-05
2.58126e-05
2.14554e-05
1.78692e-05
1.49106e-05
1.24446e-05
1.03886e-05
8.67699e-06
7.25467e-06
6.07515e-06
5.09958e-06
4.29558e-06
3.63746e-06
3.10524e-06
2.68881e-06
2.37433e-06
2.14278e-06
1.98644e-06
1.93759e-06
7.95523e-07
7.8462e-08
7.07043e-09
0.000178582
0.000178548
0.000178517
0.000178498
0.000178493
0.000178505
0.00017854
0.000178611
0.000178741
0.000176121
0.000144868
0.000119253
9.82857e-05
8.10549e-05
6.6901e-05
5.52742e-05
4.57181e-05
3.78603e-05
3.13962e-05
2.60761e-05
2.16944e-05
1.80855e-05
1.51091e-05
1.26263e-05
1.05532e-05
8.82536e-06
7.38797e-06
6.19475e-06
5.20693e-06
4.39224e-06
3.72519e-06
3.18605e-06
2.76579e-06
2.44356e-06
2.20812e-06
2.04912e-06
2.008e-06
7.31935e-07
7.42195e-08
7.04912e-09
0.000178554
0.000178522
0.000178495
0.000178478
0.000178476
0.00017849
0.000178529
0.000178604
0.000178739
0.00017683
0.000145526
0.000119856
9.88365e-05
8.1555e-05
6.73541e-05
5.56842e-05
4.60891e-05
3.81962e-05
3.17006e-05
2.63522e-05
2.19451e-05
1.8313e-05
1.53176e-05
1.28185e-05
1.0728e-05
8.98323e-06
7.53024e-06
6.32283e-06
5.32235e-06
4.49661e-06
3.82043e-06
3.27434e-06
2.84892e-06
2.519e-06
2.27967e-06
2.11851e-06
2.08774e-06
6.67214e-07
6.96707e-08
7.03121e-09
0.000178526
0.000178496
0.000178472
0.000178458
0.000178458
0.000178476
0.000178518
0.000178597
0.000178737
0.000177567
0.000146209
0.000120481
9.94086e-05
8.20747e-05
6.78252e-05
5.61109e-05
4.64755e-05
3.85464e-05
3.20184e-05
2.66409e-05
2.22078e-05
1.8552e-05
1.55364e-05
1.30212e-05
1.09131e-05
9.15103e-06
7.68192e-06
6.45987e-06
5.44637e-06
4.6093e-06
3.92384e-06
3.37086e-06
2.93874e-06
2.60124e-06
2.35808e-06
2.19589e-06
2.1762e-06
6.16452e-07
6.48202e-08
7.01529e-09
0.000178497
0.00017847
0.000178449
0.000178438
0.000178441
0.000178462
0.000178507
0.000178591
0.000178736
0.00017834
0.000146919
0.000121128
0.000100002
8.2614e-05
6.83143e-05
5.65541e-05
4.68771e-05
3.89109e-05
3.23495e-05
2.69422e-05
2.24825e-05
1.88025e-05
1.5766e-05
1.32348e-05
1.11091e-05
9.32919e-06
7.8435e-06
6.60641e-06
5.57958e-06
4.73095e-06
4.0362e-06
3.47676e-06
3.03609e-06
2.69101e-06
2.44414e-06
2.28242e-06
2.27385e-06
5.77726e-07
5.99157e-08
7.00044e-09
0.000178467
0.000178443
0.000178426
0.000178417
0.000178423
0.000178447
0.000178496
0.000178585
0.000178736
0.000178993
0.000147657
0.000121799
0.000100616
8.31728e-05
6.88212e-05
5.70136e-05
4.7294e-05
3.92895e-05
3.2694e-05
2.72562e-05
2.27694e-05
1.90648e-05
1.60065e-05
1.34596e-05
1.13162e-05
9.51817e-06
8.01547e-06
6.763e-06
5.72261e-06
4.8623e-06
4.15832e-06
3.59105e-06
3.14175e-06
2.78921e-06
2.53888e-06
2.37728e-06
2.38602e-06
5.43425e-07
5.51764e-08
6.98603e-09
0.000178437
0.000178416
0.000178402
0.000178397
0.000178405
0.000178432
0.000178485
0.000178579
0.000178737
0.000179005
0.000148423
0.000122495
0.000101252
8.37511e-05
6.93459e-05
5.74894e-05
4.77259e-05
3.96822e-05
3.30518e-05
2.7583e-05
2.30684e-05
1.93389e-05
1.62584e-05
1.36948e-05
1.15348e-05
9.71841e-06
8.19836e-06
6.93024e-06
5.87614e-06
5.00413e-06
4.29142e-06
3.71431e-06
3.25653e-06
2.89687e-06
2.64318e-06
2.48084e-06
2.52449e-06
5.09384e-07
5.07323e-08
6.9715e-09
0.000178406
0.000178389
0.000178379
0.000178376
0.000178387
0.000178418
0.000178475
0.000178574
0.00017874
0.000179019
0.000149214
0.000123217
0.00010191
8.43487e-05
6.98881e-05
5.79814e-05
4.81727e-05
4.00889e-05
3.34229e-05
2.79224e-05
2.33797e-05
1.96249e-05
1.65218e-05
1.39406e-05
1.17653e-05
9.93043e-06
8.39274e-06
7.10878e-06
6.04093e-06
5.15738e-06
4.43505e-06
3.84738e-06
3.38132e-06
3.01508e-06
2.75711e-06
2.59522e-06
2.70708e-06
4.73608e-07
4.66447e-08
6.9562e-09
0.000178375
0.000178361
0.000178355
0.000178356
0.00017837
0.000178403
0.000178464
0.00017857
0.000178743
0.000179034
0.00015003
0.000123965
0.00010259
8.49658e-05
7.04478e-05
5.84892e-05
4.86343e-05
4.05095e-05
3.38072e-05
2.82745e-05
2.37033e-05
1.9923e-05
1.67971e-05
1.41973e-05
1.20069e-05
1.01547e-05
8.59914e-06
7.29924e-06
6.2178e-06
5.32292e-06
4.58932e-06
3.99118e-06
3.51715e-06
3.14495e-06
2.88187e-06
2.72157e-06
2.75511e-06
4.35421e-07
4.29331e-08
6.93932e-09
0.000178343
0.000178334
0.000178331
0.000178335
0.000178352
0.000178389
0.000178455
0.000178566
0.000178749
0.000179051
0.000150871
0.000124738
0.000103292
8.56022e-05
7.10248e-05
5.90128e-05
4.91104e-05
4.09437e-05
3.42045e-05
2.86391e-05
2.40391e-05
2.02332e-05
1.70844e-05
1.44655e-05
1.22593e-05
1.03911e-05
8.8184e-06
7.50261e-06
6.40758e-06
5.49986e-06
4.7549e-06
4.14679e-06
3.66498e-06
3.28768e-06
3.0184e-06
2.86279e-06
2.675e-06
3.95201e-07
3.95939e-08
6.9197e-09
0.000178312
0.000178306
0.000178307
0.000178315
0.000178335
0.000178375
0.000178446
0.000178564
0.000178756
0.000179071
0.000151737
0.000125536
0.000104016
8.6258e-05
7.16189e-05
5.95518e-05
4.96009e-05
4.13914e-05
3.46147e-05
2.90163e-05
2.43872e-05
2.05556e-05
1.73838e-05
1.47454e-05
1.25229e-05
1.06387e-05
9.04965e-06
7.71822e-06
6.60913e-06
5.6886e-06
4.93266e-06
4.31541e-06
3.82616e-06
3.44429e-06
3.16704e-06
3.02607e-06
2.58405e-06
3.54101e-07
3.66217e-08
6.8959e-09
0.00017828
0.000178277
0.000178283
0.000178295
0.000178318
0.000178362
0.000178437
0.000178563
0.000178765
0.000179094
0.00015263
0.000126358
0.000104763
8.69329e-05
7.22298e-05
6.01061e-05
5.01053e-05
4.18524e-05
3.50376e-05
2.94059e-05
2.47475e-05
2.08901e-05
1.76954e-05
1.50374e-05
1.27979e-05
1.08974e-05
9.2923e-06
7.94558e-06
6.82271e-06
5.88997e-06
5.12363e-06
4.49831e-06
4.00228e-06
3.61549e-06
3.32788e-06
3.22559e-06
2.45801e-06
3.1359e-07
3.39482e-08
6.86538e-09
0.000178248
0.000178249
0.000178259
0.000178275
0.000178302
0.00017835
0.00017843
0.000178563
0.000178776
0.000179119
0.000153553
0.000127206
0.000105532
8.76273e-05
7.28576e-05
6.06755e-05
5.06238e-05
4.23265e-05
3.54731e-05
2.98079e-05
2.51201e-05
2.12369e-05
1.80194e-05
1.53415e-05
1.30846e-05
1.11677e-05
9.54665e-06
8.18517e-06
7.04915e-06
6.10497e-06
5.32888e-06
4.69677e-06
4.19496e-06
3.8012e-06
3.50167e-06
3.48895e-06
2.276e-06
2.75064e-07
3.15282e-08
6.82495e-09
0.000178217
0.000178221
0.000178235
0.000178255
0.000178286
0.000178338
0.000178424
0.000178565
0.000178791
0.000179149
0.000154504
0.000128079
0.000106321
8.83391e-05
7.35006e-05
6.12586e-05
5.11548e-05
4.28126e-05
3.59202e-05
3.02212e-05
2.5504e-05
2.15951e-05
1.83551e-05
1.56575e-05
1.33831e-05
1.14498e-05
9.81325e-06
8.43755e-06
7.28891e-06
6.33414e-06
5.54934e-06
4.91221e-06
4.40555e-06
4.0002e-06
3.69154e-06
3.87189e-06
2.0314e-06
2.39604e-07
2.93543e-08
6.77162e-09
0.000178185
0.000178193
0.000178211
0.000178235
0.00017827
0.000178327
0.000178418
0.000178569
0.000178808
0.000179182
0.000155496
0.000128988
0.000107139
8.90758e-05
7.41648e-05
6.18601e-05
5.17024e-05
4.33138e-05
3.63817e-05
3.06482e-05
2.59014e-05
2.19669e-05
1.87047e-05
1.59876e-05
1.36953e-05
1.17452e-05
1.00932e-05
8.70352e-06
7.54277e-06
6.57845e-06
5.78663e-06
5.1467e-06
4.63481e-06
4.21034e-06
3.90669e-06
4.49945e-06
1.73962e-06
2.07874e-07
2.74258e-08
6.70321e-09
0.000178154
0.000178165
0.000178188
0.000178216
0.000178255
0.000178316
0.000178415
0.000178575
0.000178829
0.00017922
0.000156484
0.000129894
0.000107954
8.98088e-05
7.48259e-05
6.24597e-05
5.22493e-05
4.38159e-05
3.68456e-05
3.10796e-05
2.63048e-05
2.23463e-05
1.90632e-05
1.63272e-05
1.40171e-05
1.20505e-05
1.03834e-05
8.98085e-06
7.80934e-06
6.83727e-06
6.04109e-06
5.40095e-06
4.88086e-06
4.42873e-06
4.16625e-06
5.73276e-06
1.43313e-06
1.80142e-07
2.57409e-08
6.619e-09
0.000178123
0.000178138
0.000178164
0.000178197
0.000178241
0.000178307
0.000178412
0.000178583
0.000178854
0.000179263
0.000157629
0.000130935
0.000108873
9.06288e-05
7.55591e-05
6.31198e-05
5.28475e-05
4.4362e-05
3.73476e-05
3.15443e-05
2.67377e-05
2.27523e-05
1.94461e-05
1.6689e-05
1.4359e-05
1.23744e-05
1.06919e-05
9.27655e-06
8.09491e-06
7.11649e-06
6.31886e-06
5.67975e-06
5.1422e-06
4.65652e-06
4.51549e-06
7.84718e-06
1.14678e-06
1.56382e-07
2.42976e-08
6.52061e-09
0.000178092
0.000178111
0.000178142
0.000178179
0.000178227
0.000178299
0.000178412
0.000178594
0.000178883
0.00017931
0.000158756
0.000131971
0.000109795
9.14546e-05
7.63007e-05
6.37892e-05
5.34552e-05
4.49173e-05
3.78584e-05
3.20171e-05
2.71782e-05
2.31655e-05
1.98359e-05
1.7057e-05
1.47063e-05
1.27033e-05
1.10052e-05
9.57755e-06
8.38669e-06
7.40385e-06
6.60835e-06
5.96833e-06
5.39786e-06
4.8921e-06
5.02952e-06
6.51024e-06
8.98891e-07
1.36229e-07
2.30817e-08
6.41534e-09
0.000179863
0.000179609
0.000179387
0.000179195
0.000179029
0.000178885
0.000178763
0.000179863
0.000179609
0.000179388
0.000179195
0.000179029
0.000178885
0.000178761
0.000179863
0.000179609
0.000179388
0.000179196
0.000179029
0.000178884
0.000178759
0.000179863
0.000179609
0.000179388
0.000179196
0.000179029
0.000178884
0.000178758
0.000179863
0.00017961
0.000179388
0.000179196
0.000179029
0.000178884
0.000178758
0.000179863
0.00017961
0.000179389
0.000179196
0.000179029
0.000178884
0.000178757
0.000179863
0.00017961
0.000179389
0.000179196
0.000179029
0.000178884
0.000178757
0.000179863
0.00017961
0.000179388
0.000179196
0.000179029
0.000178883
0.000178756
0.000179863
0.000179609
0.000179388
0.000179196
0.000179028
0.000178883
0.000178755
0.000179863
0.000179609
0.000179388
0.000179196
0.000179028
0.000178882
0.000178755
0.000179863
0.000179609
0.000179388
0.000179195
0.000179028
0.000178881
0.000178754
0.000179863
0.000179609
0.000179388
0.000179195
0.000179027
0.000178881
0.000178753
0.000179863
0.000179609
0.000179387
0.000179195
0.000179027
0.00017888
0.000178753
0.000179863
0.000179609
0.000179387
0.000179194
0.000179026
0.00017888
0.000178752
0.000179863
0.000179609
0.000179387
0.000179194
0.000179026
0.00017888
0.000178752
0.000179863
0.000179609
0.000179387
0.000179194
0.000179026
0.000178879
0.000178751
0.000179863
0.000179609
0.000179387
0.000179194
0.000179026
0.000178879
0.000178751
0.000179863
0.000179609
0.000179387
0.000179194
0.000179026
0.000178879
0.000178751
0.000179863
0.000179609
0.000179387
0.000179194
0.000179026
0.000178879
0.000178751
0.000179863
0.000179609
0.000179387
0.000179194
0.000179026
0.000178879
0.000178751
0.000179863
0.000179609
0.000179387
0.000179194
0.000179026
0.000178879
0.000178751
0.000179863
0.000179609
0.000179387
0.000179194
0.000179026
0.000178879
0.000178751
0.000179863
0.000179608
0.000179387
0.000179194
0.000179026
0.000178879
0.000178751
0.000179863
0.000179608
0.000179387
0.000179194
0.000179026
0.000178879
0.000178751
0.000179863
0.000179608
0.000179387
0.000179194
0.000179026
0.000178879
0.000178751
0.000179863
0.000179608
0.000179387
0.000179194
0.000179026
0.000178879
0.000178751
0.000179863
0.000179608
0.000179387
0.000179194
0.000179026
0.000178879
0.000178751
0.000179863
0.000179608
0.000179387
0.000179194
0.000179026
0.000178879
0.000178751
0.000179863
0.000179608
0.000179387
0.000179194
0.000179026
0.000178879
0.000178751
0.000179863
0.000179608
0.000179387
0.000179194
0.000179026
0.000178879
0.000178751
0.000179863
0.000179608
0.000179387
0.000179194
0.000179026
0.000178879
0.000178751
0.000179863
0.000179608
0.000179387
0.000179194
0.000179026
0.000178879
0.000178751
0.000179863
0.000179608
0.000179387
0.000179194
0.000179026
0.000178879
0.000178751
0.000179863
0.000179608
0.000179387
0.000179194
0.000179026
0.000178879
0.000178751
0.000179863
0.000179608
0.000179387
0.000179194
0.000179026
0.000178879
0.000178751
0.000179863
0.000179608
0.000179387
0.000179194
0.000179026
0.000178879
0.000178751
0.000179863
0.000179608
0.000179387
0.000179194
0.000179026
0.000178879
0.000178751
0.000179863
0.000179608
0.000179387
0.000179194
0.000179026
0.000178879
0.000178751
0.000179863
0.000179608
0.000179387
0.000179194
0.000179026
0.000178879
0.000178751
0.000179863
0.000179608
0.000179387
0.000179194
0.000179026
0.000178879
0.000178751
0.000178692
0.000178665
0.000178638
0.000178609
0.000178579
0.000178549
0.000178518
0.000178485
0.000178453
0.000178419
0.000178386
0.000178352
0.000178317
0.000178283
0.000178248
0.000178214
0.000178179
0.000178145
0.000178111
0.000178077
0.000178688
0.000178661
0.000178632
0.000178602
0.000178571
0.00017854
0.000178508
0.000178475
0.000178442
0.000178409
0.000178375
0.000178341
0.000178306
0.000178272
0.000178237
0.000178202
0.000178167
0.000178132
0.000178097
0.000178063
0.000178687
0.000178659
0.00017863
0.0001786
0.00017857
0.000178538
0.000178506
0.000178474
0.000178441
0.000178407
0.000178373
0.000178339
0.000178304
0.000178269
0.000178234
0.000178198
0.000178163
0.000178127
0.000178092
0.000178057
0.000178685
0.000178657
0.000178629
0.000178599
0.000178568
0.000178536
0.000178504
0.000178471
0.000178438
0.000178404
0.000178369
0.000178335
0.000178299
0.000178264
0.000178228
0.000178193
0.000178157
0.000178121
0.000178085
0.00017805
0.000178685
0.000178656
0.000178627
0.000178597
0.000178566
0.000178535
0.000178502
0.000178469
0.000178436
0.000178402
0.000178367
0.000178332
0.000178297
0.000178261
0.000178225
0.000178189
0.000178153
0.000178117
0.000178081
0.000178045
0.000178684
0.000178656
0.000178626
0.000178596
0.000178565
0.000178533
0.000178501
0.000178468
0.000178434
0.0001784
0.000178365
0.00017833
0.000178294
0.000178259
0.000178222
0.000178186
0.00017815
0.000178114
0.000178077
0.000178041
0.000178683
0.000178655
0.000178625
0.000178595
0.000178564
0.000178532
0.000178499
0.000178466
0.000178432
0.000178398
0.000178363
0.000178328
0.000178292
0.000178256
0.00017822
0.000178184
0.000178147
0.000178111
0.000178074
0.000178038
0.000178682
0.000178654
0.000178624
0.000178594
0.000178563
0.000178531
0.000178498
0.000178465
0.000178431
0.000178396
0.000178361
0.000178326
0.00017829
0.000178254
0.000178218
0.000178181
0.000178145
0.000178108
0.000178071
0.000178035
0.000178681
0.000178653
0.000178623
0.000178593
0.000178561
0.000178529
0.000178497
0.000178463
0.000178429
0.000178395
0.00017836
0.000178324
0.000178288
0.000178252
0.000178216
0.000178179
0.000178142
0.000178106
0.000178069
0.000178032
0.000178681
0.000178652
0.000178622
0.000178592
0.00017856
0.000178528
0.000178495
0.000178462
0.000178428
0.000178393
0.000178358
0.000178323
0.000178287
0.00017825
0.000178214
0.000178177
0.000178141
0.000178104
0.000178067
0.00017803
0.00017868
0.000178651
0.000178621
0.000178591
0.000178559
0.000178527
0.000178494
0.000178461
0.000178427
0.000178392
0.000178357
0.000178321
0.000178285
0.000178249
0.000178212
0.000178176
0.000178139
0.000178102
0.000178065
0.000178028
0.000178679
0.00017865
0.00017862
0.00017859
0.000178558
0.000178526
0.000178493
0.00017846
0.000178425
0.000178391
0.000178356
0.00017832
0.000178284
0.000178248
0.000178211
0.000178174
0.000178138
0.000178101
0.000178064
0.000178027
0.000178678
0.000178649
0.000178619
0.000178589
0.000178557
0.000178525
0.000178492
0.000178459
0.000178424
0.00017839
0.000178355
0.000178319
0.000178283
0.000178247
0.00017821
0.000178173
0.000178136
0.000178099
0.000178062
0.000178025
0.000178678
0.000178649
0.000178619
0.000178588
0.000178557
0.000178524
0.000178491
0.000178458
0.000178424
0.000178389
0.000178354
0.000178318
0.000178282
0.000178246
0.000178209
0.000178172
0.000178136
0.000178099
0.000178061
0.000178024
0.000178677
0.000178648
0.000178618
0.000178588
0.000178556
0.000178524
0.000178491
0.000178457
0.000178423
0.000178388
0.000178353
0.000178317
0.000178281
0.000178245
0.000178208
0.000178172
0.000178135
0.000178098
0.000178061
0.000178024
0.000178677
0.000178648
0.000178618
0.000178587
0.000178555
0.000178523
0.00017849
0.000178456
0.000178422
0.000178388
0.000178352
0.000178317
0.000178281
0.000178244
0.000178208
0.000178171
0.000178134
0.000178097
0.00017806
0.000178023
0.000178677
0.000178647
0.000178617
0.000178587
0.000178555
0.000178523
0.00017849
0.000178456
0.000178422
0.000178387
0.000178352
0.000178316
0.00017828
0.000178244
0.000178207
0.000178171
0.000178134
0.000178097
0.00017806
0.000178023
0.000178677
0.000178647
0.000178617
0.000178586
0.000178555
0.000178522
0.000178489
0.000178455
0.000178421
0.000178386
0.000178351
0.000178316
0.00017828
0.000178243
0.000178207
0.00017817
0.000178133
0.000178096
0.000178059
0.000178022
0.000178676
0.000178647
0.000178617
0.000178586
0.000178554
0.000178522
0.000178489
0.000178455
0.000178421
0.000178386
0.000178351
0.000178315
0.000178279
0.000178243
0.000178206
0.00017817
0.000178133
0.000178096
0.000178059
0.000178022
0.000178676
0.000178647
0.000178617
0.000178586
0.000178554
0.000178521
0.000178488
0.000178455
0.00017842
0.000178386
0.00017835
0.000178315
0.000178279
0.000178243
0.000178206
0.000178169
0.000178133
0.000178096
0.000178059
0.000178022
0.000178676
0.000178647
0.000178616
0.000178585
0.000178553
0.000178521
0.000178488
0.000178454
0.00017842
0.000178385
0.00017835
0.000178314
0.000178278
0.000178242
0.000178206
0.000178169
0.000178132
0.000178096
0.000178059
0.000178022
0.000178676
0.000178646
0.000178616
0.000178585
0.000178553
0.00017852
0.000178487
0.000178454
0.000178419
0.000178385
0.000178349
0.000178314
0.000178278
0.000178242
0.000178205
0.000178169
0.000178132
0.000178095
0.000178059
0.000178022
0.000178676
0.000178646
0.000178616