/*--------------------------------*- C++ -*----------------------------------*\
  =========                 |
  \\      /  F ield         | OpenFOAM: The Open Source CFD Toolbox
   \\    /   O peration     | Website:  https://openfoam.org
    \\  /    A nd           | Version:  13
     \\/     M anipulation  |
\*---------------------------------------------------------------------------*/
FoamFile
{
    format      ascii;
    class       volScalarField;
    location    "282";
    object      omega;
}
// * * * * * * * * * * * * * * * * * * * * * * * * * * * * * * * * * * * * * //

dimensions      [0 0 -1 0 0 0 0];

internalField   nonuniform List<scalar> 
26820
(
217.229
214.525
212.19
210.172
208.425
206.909
205.594
217.227
214.519
212.18
210.159
208.409
206.892
205.574
217.223
214.506
212.16
210.133
208.378
206.856
205.534
217.216
214.487
212.13
210.094
208.331
206.804
205.473
217.207
214.461
212.09
210.042
208.269
206.733
205.393
217.196
214.429
212.041
209.978
208.191
206.646
205.293
217.183
214.391
211.981
209.9
208.099
206.542
205.173
217.168
214.346
211.912
209.811
207.991
206.42
205.035
217.15
214.295
211.833
209.708
207.868
206.282
204.877
217.131
214.239
211.746
209.594
207.732
206.128
204.7
217.109
214.176
211.648
209.468
207.58
205.957
204.506
217.085
214.108
211.542
209.33
207.415
205.771
204.293
217.06
214.033
211.427
209.181
207.237
205.57
204.063
217.032
213.954
211.303
209.02
207.045
205.353
203.817
217.003
213.868
211.171
208.849
206.84
205.123
203.554
216.971
213.778
211.031
208.667
206.622
204.878
203.275
216.938
213.682
210.883
208.475
206.393
204.619
202.98
216.904
213.582
210.727
208.274
206.152
204.348
202.671
216.867
213.476
210.564
208.062
205.9
204.062
202.349
216.829
213.366
210.393
207.839
205.635
203.757
202.018
204.394
203.261
202.259
201.379
200.615
199.968
199.436
199.024
198.736
198.583
198.589
198.79
199.239
200.014
201.22
203.007
205.585
209.245
214.396
221.596
231.719
245.536
262.687
283.812
310.082
343.235
385.835
441.764
517.129
621.891
773.52
1002.97
1378.8
2019.12
3434.72
5748.54
9488.46
37340.1
317638
2.69204e+06
204.375
203.244
202.243
201.364
200.602
199.956
199.425
199.014
198.726
198.573
198.579
198.779
199.228
200
201.204
202.988
205.561
209.214
214.356
221.543
231.642
245.457
262.607
283.729
309.99
343.127
385.7
441.585
516.878
621.519
772.938
1002.02
1377.05
2016.07
3425.42
5731.96
9467.31
37397.2
318701
2.69204e+06
204.336
203.209
202.211
201.336
200.577
199.933
199.405
198.995
198.709
198.558
198.565
198.767
199.217
199.991
201.196
202.981
205.555
209.209
214.353
221.542
231.639
245.464
262.63
283.77
310.053
343.214
385.814
441.728
517.052
621.721
773.151
1002.21
1377.01
2015.94
3421.03
5721.61
9458.88
37489.1
319250
2.69204e+06
204.279
203.157
202.165
201.294
200.539
199.899
199.375
198.969
198.686
198.538
198.549
198.753
199.207
199.984
201.194
202.984
205.565
209.227
214.38
221.582
231.694
245.552
262.756
283.943
310.281
343.511
386.199
442.229
517.709
622.594
774.33
1003.86
1379.3
2020
3423.57
5721.13
9470.08
37665.1
319827
2.69204e+06
204.203
203.087
202.102
201.238
200.489
199.855
199.335
198.934
198.656
198.512
198.526
198.735
199.193
199.975
201.19
202.987
205.575
209.247
214.413
221.631
231.758
245.667
262.933
284.19
310.611
343.942
386.761
442.966
518.687
623.921
776.176
1006.55
1383.27
2027.41
3430.06
5725.66
9495.25
37951.3
320713
2.69204e+06
204.108
203.001
202.024
201.168
200.427
199.799
199.286
198.89
198.617
198.479
198.498
198.712
199.175
199.963
201.184
202.989
205.587
209.271
214.451
221.689
231.833
245.804
263.15
284.499
311.029
344.495
387.486
443.921
519.965
625.67
778.641
1010.21
1388.8
2038.02
3440.28
5734.55
9534.08
38362.6
321989
2.69204e+06
203.995
202.897
201.931
201.085
200.352
199.732
199.227
198.838
198.571
198.439
198.464
198.685
199.154
199.949
201.179
202.993
205.602
209.3
214.497
221.759
231.926
245.972
263.413
284.875
311.541
345.173
388.38
445.105
521.556
627.861
781.751
1014.87
1395.94
2051.88
3454.61
5748.48
9588.23
38906.3
323674
2.69204e+06
203.863
202.777
201.823
200.988
200.265
199.655
199.158
198.777
198.518
198.393
198.426
198.653
199.13
199.934
201.173
202.998
205.621
209.336
214.554
221.845
232.038
246.172
263.726
285.321
312.147
345.98
389.446
446.523
523.467
630.502
785.52
1020.55
1404.72
2069.06
3473.09
5767.68
9659.09
39586.5
325761
2.69204e+06
203.713
202.641
201.7
200.878
200.167
199.567
199.08
198.709
198.458
198.342
198.382
198.618
199.104
199.917
201.167
203.005
205.644
209.379
214.622
221.945
232.17
246.407
264.091
285.84
312.852
346.918
390.688
448.177
525.703
633.602
789.958
1027.26
1415.18
2089.58
3495.63
5792.08
9747.82
40406.3
328243
2.69204e+06
203.546
202.488
201.563
200.754
200.057
199.469
198.993
198.632
198.391
198.284
198.334
198.579
199.074
199.899
201.161
203.015
205.672
209.429
214.7
222.062
232.324
246.679
264.512
286.437
313.66
347.993
392.111
450.073
528.272
637.171
795.084
1035.05
1427.36
2113.54
3522.19
5821.62
9855.81
41369.9
331109
2.69204e+06
203.361
202.32
201.412
200.619
199.935
199.36
198.897
198.547
198.317
198.22
198.28
198.536
199.043
199.879
201.156
203.026
205.704
209.487
214.79
222.196
232.499
246.989
264.991
287.113
314.576
349.209
393.721
452.222
531.186
641.226
800.92
1043.93
1441.33
2141.07
3552.78
5856.33
9984.92
42483.1
334357
2.69204e+06
203.16
202.136
201.246
200.47
199.802
199.242
198.792
198.455
198.237
198.151
198.222
198.49
199.009
199.859
201.152
203.041
205.742
209.553
214.893
222.347
232.698
247.338
265.53
287.874
315.605
350.574
395.528
454.632
534.458
645.787
807.497
1053.96
1457.17
2172.34
3587.49
5896.34
10137.5
43753.7
337984
2.69204e+06
202.942
201.937
201.067
200.31
199.659
199.114
198.678
198.355
198.15
198.077
198.16
198.44
198.973
199.838
201.148
203.058
205.785
209.628
215.008
222.517
232.921
247.736
266.138
288.727
316.752
352.095
397.54
457.318
538.106
650.878
814.853
1065.21
1475.01
2207.55
3626.44
5941.92
10316.4
45191.1
341993
2.69204e+06
202.708
201.724
200.875
200.137
199.505
198.977
198.557
198.248
198.057
197.997
198.094
198.388
198.935
199.817
201.146
203.079
205.834
209.713
215.137
222.706
233.173
248.129
266.793
289.671
318.027
353.782
399.769
460.293
542.15
656.527
823.031
1077.73
1494.96
2246.96
3669.79
5993.44
10525.4
46808.2
346391
2.69204e+06
202.458
201.496
200.67
199.953
199.34
198.831
198.427
198.134
197.958
197.913
198.024
198.332
198.896
199.796
201.146
203.104
205.89
209.808
215.281
222.916
233.459
248.529
267.487
290.701
319.432
355.643
402.228
463.574
546.612
662.769
832.082
1091.62
1517.19
2290.86
3717.76
6051.37
10767.1
48608.1
351201
2.69204e+06
202.193
201.255
200.452
199.758
199.166
198.675
198.29
198.013
197.853
197.823
197.95
198.275
198.855
199.775
201.148
203.133
205.953
209.914
215.442
223.148
233.78
248.956
268.224
291.816
320.972
357.69
404.931
467.181
551.519
669.64
842.065
1106.97
1541.89
2339.61
3770.6
6116.33
11046.5
50607.9
356438
2.69204e+06
201.914
201
200.223
199.553
198.982
198.512
198.145
197.886
197.743
197.73
197.873
198.215
198.814
199.754
201.152
203.167
206.024
210.032
215.619
223.404
234.136
249.421
269.015
293.019
322.648
359.929
407.893
471.134
556.901
677.185
853.048
1123.89
1569.29
2393.47
3828.52
6189.1
11369.8
52829.2
362114
2.69204e+06
201.621
200.733
199.982
199.337
198.789
198.34
197.993
197.753
197.628
197.632
197.793
198.153
198.772
199.735
201.159
203.207
206.104
210.162
215.815
223.685
234.53
249.932
269.873
294.32
324.468
362.371
411.131
475.457
562.791
685.453
865.111
1142.52
1599.58
2453.93
3892.17
6270.75
11744.6
55295.8
368245
2.69204e+06
201.313
200.452
199.73
199.111
198.588
198.161
197.835
197.615
197.508
197.531
197.71
198.089
198.73
199.717
201.17
203.253
206.193
210.307
216.031
223.993
234.964
250.495
270.81
295.731
326.443
365.029
414.661
480.177
569.228
694.502
878.342
1163.01
1633.22
2514.08
3960.81
6362.71
12180.2
58035.1
374852
2.69204e+06
201.007
200.16
199.465
198.876
198.378
197.974
197.67
197.471
197.384
197.426
197.625
198.025
198.688
199.701
201.185
203.305
206.293
210.468
216.269
224.331
235.439
251.114
271.837
297.267
328.587
367.917
418.504
485.322
576.254
704.396
892.845
1185.52
1670.69
2572.93
4033.61
6466.59
12687.5
61077.6
381956
2.69204e+06
200.619
199.888
199.204
198.632
198.16
197.781
197.499
197.322
197.256
197.318
197.537
197.959
198.647
199.688
201.205
203.366
206.405
210.645
216.531
224.702
235.959
251.793
272.963
298.942
330.916
371.053
422.684
490.927
583.918
715.208
908.739
1210.25
1712.43
2631.81
4110.35
6584.42
13280.1
64459.7
389609
2.69204e+06
200.228
199.586
198.94
198.385
197.934
197.58
197.323
197.168
197.124
197.207
197.448
197.893
198.606
199.677
201.23
203.435
206.529
210.84
216.818
225.109
236.528
252.538
274.197
300.77
333.448
374.459
427.226
497.028
592.276
727.023
926.159
1237.45
1758.85
2692.22
4191.35
6718.78
13973.7
68212.9
397670
2.69204e+06
199.844
199.259
198.664
198.134
197.704
197.374
197.141
197.01
196.989
197.094
197.358
197.828
198.568
199.67
201.261
203.514
206.668
211.055
217.133
225.554
237.151
253.353
275.565
302.773
336.204
378.159
432.163
503.667
601.389
739.936
945.262
1267.38
1810.64
2755.47
4277.38
6873.16
14788.2
72412.2
407812
2.69204e+06
199.464
198.916
198.374
197.876
197.469
197.162
196.955
196.848
196.851
196.98
197.267
197.763
198.532
199.668
201.3
203.603
206.822
211.293
217.479
226.041
237.831
254.248
276.99
304.953
339.209
382.182
437.529
510.894
611.328
754.058
966.23
1300.39
1866.72
2822.5
4369.52
7052.13
15745.9
77120.9
420867
2.69204e+06
199.083
198.565
198.07
197.611
197.229
196.946
196.764
196.683
196.71
196.863
197.176
197.699
198.498
199.671
201.346
203.704
206.993
211.554
217.858
226.574
238.573
255.232
278.467
307.309
342.485
386.559
443.365
518.763
622.175
769.515
989.27
1336.92
1923.52
2893.64
4469.17
7261.83
16886.9
82735.2
436037
2.69204e+06
198.699
198.207
197.755
197.338
196.985
196.727
196.57
196.515
196.567
196.746
197.085
197.636
198.469
199.679
201.402
203.819
207.183
211.841
218.274
227.157
239.385
256.315
280.02
309.85
346.053
391.327
449.717
527.338
634.022
786.454
1014.63
1377.35
1981.29
2969.25
4577.98
7509.76
18213.7
87348
454599
2.69204e+06
198.309
197.845
197.432
197.056
196.736
196.504
196.372
196.344
196.423
196.629
196.995
197.576
198.443
199.695
201.468
203.948
207.394
212.158
218.73
227.795
240.271
257.508
281.679
312.601
349.94
396.522
456.638
536.691
646.979
805.044
1042.59
1422.71
2041.06
3049.92
4698.03
7806.2
19793.4
90669.5
475913
2.69204e+06
197.913
197.479
197.103
196.767
196.482
196.277
196.173
196.171
196.278
196.511
196.906
197.519
198.422
199.718
201.545
204.094
207.628
212.507
219.23
228.495
241.241
258.819
283.469
315.561
354.176
402.189
464.186
546.907
661.168
825.484
1073.47
1469.5
2103.56
3136.57
4831.92
8163.21
21167.6
93536.5
498910
2.69204e+06
197.511
197.109
196.768
196.473
196.223
196.048
195.971
195.997
196.132
196.394
196.819
197.466
198.408
199.75
201.635
204.258
207.887
212.891
219.778
229.261
242.301
260.259
285.419
318.64
358.774
408.374
472.428
558.079
676.735
847.999
1107.99
1517.73
2169.47
3230.32
4983.08
8548.28
22180.1
96582
522646
2.69204e+06
197.103
196.736
196.43
196.173
195.96
195.817
195.768
195.822
195.987
196.278
196.735
197.416
198.4
199.792
201.74
204.443
208.174
213.314
220.381
230.101
243.461
261.842
287.555
321.864
363.796
415.136
481.442
570.322
693.845
872.886
1144.59
1567.96
2239.61
3332.71
5151.41
8875.61
22874.9
100261
546357
2.69204e+06
196.689
196.359
196.088
195.869
195.694
195.583
195.563
195.647
195.842
196.164
196.654
197.373
198.4
199.846
201.861
204.649
208.493
213.78
221.042
231.022
244.733
263.579
289.903
325.288
369.08
422.54
491.307
583.743
712.702
900.37
1182.72
1620.84
2315.04
3444.59
5320.4
9127.62
23298.5
104929
569411
2.69204e+06
196.271
195.978
195.744
195.562
195.424
195.347
195.358
195.473
195.698
196.052
196.577
197.335
198.409
199.912
202
204.881
208.847
214.294
221.77
232.034
246.129
265.489
292.489
328.97
374.602
430.517
502.192
598.6
733.495
929.213
1222.67
1677.17
2396.46
3565.25
5488.36
9271.78
23551.9
110846
591256
2.69204e+06
195.849
195.595
195.397
195.254
195.153
195.11
195.154
195.299
195.557
195.944
196.504
197.304
198.428
199.993
202.159
205.141
209.239
214.862
222.57
233.147
247.662
267.59
295.34
332.966
380.431
438.877
513.779
614.491
755.377
959.478
1264.97
1737.35
2485.07
3697.1
5648.67
9269.69
23809
118162
611368
2.69204e+06
195.425
195.21
195.05
194.943
194.88
194.873
194.949
195.127
195.418
195.84
196.438
197.282
198.459
200.09
202.34
205.433
209.675
215.488
223.452
234.371
249.349
269.903
298.488
337.331
386.652
447.674
525.954
631.217
778.417
991.409
1310.01
1802.47
2582.94
3842.68
5784.64
9091.66
24314.1
126909
629228
2.69204e+06
194.997
194.823
194.701
194.632
194.607
194.636
194.746
194.958
195.282
195.74
196.378
197.269
198.503
200.206
202.547
205.759
210.158
216.181
224.425
235.72
251.207
272.453
301.968
342.121
393.356
457.02
538.831
648.877
802.783
1025.44
1358.53
1873.76
2692.89
4002.99
5866.41
8737.37
25370.2
136989
644307
2.69204e+06
194.569
194.435
194.352
194.321
194.333
194.399
194.545
194.791
195.151
195.646
196.327
197.267
198.563
200.342
202.783
206.125
210.696
216.948
225.499
237.209
253.258
275.271
305.821
347.4
400.635
467.025
552.537
667.691
828.838
1062.1
1411.37
1952.9
2818.77
4174
5851.95
8260.36
27315.7
148165
656071
2.69204e+06
194.139
194.046
194.004
194.011
194.061
194.164
194.346
194.628
195.024
195.559
196.284
197.278
198.639
200.502
203.051
206.534
211.294
217.798
226.688
238.856
255.526
278.388
310.09
353.231
408.57
477.82
567.261
687.921
856.974
1101.98
1469.47
2042.38
2964.99
4341.89
5695.01
7792.05
30488.1
160053
664001
2.69204e+06
193.71
193.658
193.656
193.702
193.791
193.931
194.15
194.469
194.904
195.48
196.252
197.302
198.734
200.688
203.355
206.994
211.96
218.741
228.004
240.678
258.035
281.842
314.838
359.685
417.263
489.551
583.216
709.87
887.64
1145.72
1534.12
2146.02
3134.51
4478.13
5362.91
7563.21
35179.4
172136
667642
2.69204e+06
193.281
193.271
193.31
193.396
193.523
193.702
193.959
194.316
194.791
195.41
196.232
197.343
198.852
200.904
203.7
207.51
212.704
219.792
229.469
242.703
260.823
285.688
320.137
366.856
426.837
502.388
600.644
733.893
921.344
1194.07
1607.2
2269.18
3325.28
4538.67
4864.91
7903.06
41554.6
183768
666644
2.69204e+06
192.853
192.887
192.967
193.092
193.257
193.476
193.772
194.169
194.684
195.348
196.222
197.399
198.989
201.148
204.083
208.078
213.521
220.942
231.072
244.922
263.883
289.926
325.99
374.753
437.321
516.407
619.691
760.243
958.471
1247.86
1692.13
2418.02
3520.98
4465.4
4286.82
9214.52
49760.6
194394
661084
2.69206e+06
216.796
213.3
210.301
207.725
205.506
203.595
201.938
216.796
213.3
210.3
207.723
205.504
203.588
201.935
216.796
213.3
210.301
207.724
205.504
203.588
201.933
216.796
213.3
210.301
207.724
205.504
203.586
201.93
216.796
213.3
210.3
207.723
205.503
203.585
201.927
216.796
213.299
210.3
207.723
205.502
203.583
201.924
216.796
213.299
210.3
207.722
205.501
203.581
201.922
216.796
213.299
210.299
207.721
205.5
203.58
201.919
216.796
213.298
210.298
207.72
205.498
203.577
201.916
216.795
213.298
210.298
207.719
205.497
203.575
201.913
216.795
213.298
210.297
207.718
205.495
203.573
201.911
216.795
213.297
210.296
207.717
205.493
203.571
201.908
216.795
213.297
210.296
207.716
205.492
203.569
201.906
216.795
213.297
210.295
207.715
205.491
203.568
201.904
216.795
213.296
210.295
207.714
205.49
203.566
201.902
216.795
213.296
210.294
207.714
205.489
203.565
201.901
216.795
213.296
210.294
207.713
205.489
203.565
201.9
216.795
213.296
210.294
207.713
205.488
203.564
201.899
216.795
213.296
210.294
207.713
205.488
203.564
201.898
216.795
213.296
210.294
207.713
205.488
203.563
201.898
216.795
213.296
210.294
207.713
205.488
203.563
201.898
216.795
213.296
210.294
207.713
205.487
203.563
201.897
216.795
213.296
210.294
207.713
205.487
203.563
201.897
216.795
213.296
210.294
207.712
205.487
203.562
201.897
216.795
213.296
210.294
207.712
205.487
203.562
201.897
216.795
213.296
210.294
207.712
205.487
203.562
201.897
216.795
213.296
210.294
207.712
205.487
203.562
201.897
216.795
213.296
210.294
207.712
205.487
203.562
201.897
216.795
213.296
210.294
207.712
205.487
203.562
201.897
216.795
213.296
210.294
207.712
205.487
203.562
201.897
216.795
213.296
210.294
207.712
205.487
203.562
201.897
216.795
213.296
210.294
207.712
205.487
203.562
201.897
216.795
213.296
210.294
207.712
205.487
203.562
201.896
216.795
213.296
210.294
207.712
205.487
203.562
201.896
216.795
213.296
210.294
207.712
205.487
203.562
201.896
216.795
213.296
210.294
207.712
205.487
203.562
201.896
216.795
213.296
210.294
207.712
205.487
203.562
201.896
216.795
213.296
210.294
207.712
205.487
203.562
201.896
216.795
213.296
210.294
207.712
205.487
203.562
201.896
216.795
213.296
210.294
207.712
205.487
203.562
201.896
201.006
200.654
200.29
199.913
199.522
199.12
198.707
198.284
197.853
197.415
196.971
196.523
196.07
195.615
195.157
194.699
194.24
193.782
193.326
192.872
200.983
200.615
200.235
199.845
199.443
199.033
198.615
198.189
197.757
197.319
196.876
196.428
195.978
195.524
195.068
194.611
194.154
193.696
193.24
192.786
200.98
200.612
200.233
199.844
199.444
199.035
198.618
198.193
197.761
197.323
196.88
196.432
195.98
195.525
195.068
194.61
194.151
193.692
193.233
192.777
200.976
200.607
200.228
199.837
199.437
199.027
198.609
198.183
197.75
197.312
196.867
196.418
195.966
195.51
195.052
194.593
194.132
193.672
193.213
192.756
200.972
200.603
200.223
199.832
199.431
199.021
198.603
198.176
197.743
197.304
196.859
196.41
195.956
195.5
195.042
194.582
194.121
193.66
193.2
192.741
200.969
200.599
200.219
199.827
199.426
199.015
198.596
198.17
197.736
197.296
196.851
196.401
195.948
195.491
195.032
194.571
194.11
193.648
193.188
192.729
200.966
200.595
200.214
199.822
199.421
199.01
198.59
198.163
197.729
197.289
196.844
196.394
195.94
195.482
195.023
194.562
194.1
193.638
193.177
192.717
200.962
200.592
200.21
199.818
199.415
199.004
198.584
198.157
197.723
197.282
196.837
196.386
195.932
195.475
195.015
194.554
194.091
193.629
193.168
192.708
200.959
200.588
200.205
199.813
199.41
198.999
198.578
198.151
197.716
197.276
196.83
196.379
195.925
195.467
195.007
194.546
194.083
193.621
193.159
192.699
200.956
200.584
200.201
199.808
199.405
198.993
198.573
198.145
197.71
197.269
196.823
196.372
195.917
195.46
195
194.538
194.076
193.613
193.151
192.69
200.952
200.58
200.197
199.803
199.4
198.987
198.567
198.139
197.704
197.263
196.816
196.365
195.911
195.453
194.993
194.531
194.068
193.606
193.144
192.683
200.949
200.576
200.192
199.798
199.395
198.982
198.561
198.133
197.698
197.257
196.81
196.359
195.904
195.447
194.986
194.525
194.062
193.599
193.137
192.676
200.946
200.573
200.188
199.794
199.39
198.977
198.556
198.127
197.692
197.251
196.804
196.353
195.898
195.441
194.98
194.519
194.056
193.593
193.131
192.671
200.944
200.569
200.185
199.79
199.385
198.972
198.551
198.122
197.687
197.245
196.799
196.348
195.893
195.435
194.975
194.513
194.051
193.588
193.126
192.666
200.942
200.567
200.181
199.786
199.381
198.968
198.546
198.117
197.681
197.24
196.793
196.342
195.888
195.43
194.97
194.509
194.046
193.584
193.122
192.661
200.94
200.564
200.178
199.782
199.377
198.963
198.541
198.112
197.676
197.235
196.788
196.337
195.883
195.425
194.965
194.504
194.042
193.58
193.118
192.658
200.938
200.562
200.175
199.778
199.373
198.958
198.536
198.107
197.671
197.23
196.783
196.332
195.878
195.421
194.961
194.5
194.038
193.576
193.115
192.655
200.937
200.559
200.172
199.775
199.369
198.954
198.532
198.102
197.666
197.225
196.778
196.328
195.873
195.416
194.957
194.496
194.035
193.573
193.112
192.653
200.935
200.557
200.169
199.771
199.364
198.949
198.527
198.097
197.661
197.22
196.773
196.323
195.869
195.412
194.953
194.493
194.032
193.57
193.11
192.651
200.934
200.555
200.166
199.767
199.36
198.945
198.522
198.092
197.656
197.214
196.768
196.318
195.864
195.407
194.949
194.489
194.028
193.568
193.108
192.649
200.933
200.553
200.163
199.763
199.355
198.94
198.516
198.086
197.65
197.209
196.763
196.312
195.859
195.403
194.945
194.485
194.025
193.565
193.106
192.648
200.932
200.55
200.159
199.759
199.351
198.934
198.51
198.08
197.644
197.203
196.757
196.307
195.854
195.398
194.941
194.482
194.022
193.563
193.104
192.647
200.931
200.548
200.156
199.755
199.345
198.928
198.504
198.074
197.637
197.196
196.75
196.301
195.848
195.393
194.936
194.478
194.019
193.56
193.102
192.646
200.93
200.546
200.152
199.75
199.34
198.922
198.497
198.067
197.63
197.189
196.744
196.295
195.842
195.388
194.931
194.474
194.016
193.558
193.101
192.645
200.929
200.543
200.148
199.744
199.333
198.915
198.49
198.059
197.623
197.182
196.736
196.287
195.836
195.382
194.926
194.47
194.012
193.555
193.099
192.644
200.928
200.54
200.143
199.738
199.326
198.907
198.482
198.051
197.614
197.173
196.728
196.28
195.829
195.375
194.921
194.465
194.009
193.552
193.097
192.643
200.927
200.536
200.138
199.732
199.319
198.899
198.473
198.041
197.605
197.164
196.719
196.271
195.821
195.368
194.914
194.46
194.004
193.549
193.095
192.643
200.926
200.533
200.133
199.725
199.31
198.89
198.463
198.031
197.594
197.154
196.709
196.262
195.812
195.361
194.908
194.454
194
193.546
193.093
192.642
200.924
200.529
200.126
199.717
199.301
198.879
198.452
198.02
197.583
197.142
196.699
196.252
195.803
195.352
194.9
194.448
193.995
193.543
193.091
192.641
200.923
200.525
200.12
199.708
199.291
198.868
198.44
198.007
197.57
197.13
196.687
196.241
195.792
195.343
194.892
194.441
193.989
193.539
193.089
192.64
200.921
200.52
200.112
199.699
199.28
198.856
198.427
197.993
197.557
197.116
196.673
196.228
195.781
195.332
194.883
194.433
193.983
193.534
193.086
192.639
200.919
200.514
200.104
199.688
199.267
198.842
198.412
197.978
197.541
197.101
196.659
196.214
195.768
195.321
194.873
194.425
193.977
193.529
193.083
192.638
200.917
200.508
200.095
199.677
199.254
198.827
198.396
197.961
197.524
197.085
196.643
196.199
195.754
195.308
194.862
194.416
193.97
193.524
193.08
192.637
200.915
200.502
200.085
199.664
199.238
198.81
198.378
197.943
197.506
197.066
196.625
196.182
195.739
195.294
194.85
194.406
193.962
193.518
193.076
192.636
200.912
200.495
200.074
199.649
199.222
198.791
198.358
197.922
197.485
197.046
196.605
196.164
195.722
195.279
194.837
194.394
193.953
193.512
193.072
192.635
200.91
200.487
200.061
199.634
199.203
198.771
198.336
197.9
197.462
197.023
196.583
196.143
195.703
195.262
194.822
194.382
193.943
193.505
193.068
192.633
200.906
200.478
200.048
199.616
199.183
198.748
198.312
197.875
197.437
196.998
196.559
196.121
195.682
195.243
194.805
194.368
193.932
193.497
193.063
192.632
200.903
200.468
200.033
199.597
199.16
198.723
198.285
197.847
197.409
196.971
196.533
196.095
195.659
195.222
194.787
194.353
193.92
193.488
193.058
192.63
200.899
200.457
200.016
199.576
199.135
198.695
198.255
197.816
197.378
196.94
196.504
196.068
195.633
195.199
194.767
194.336
193.907
193.479
193.052
192.628
200.895
200.446
199.998
199.552
199.107
198.664
198.223
197.783
197.344
196.907
196.471
196.037
195.605
195.174
194.745
194.318
193.892
193.468
193.046
192.626
2.73997e+06
2.73997e+06
2.73997e+06
2.73997e+06
2.73997e+06
2.73997e+06
2.73997e+06
2.73997e+06
2.73997e+06
2.73997e+06
2.73997e+06
2.73997e+06
2.73997e+06
2.73997e+06
2.73997e+06
2.73997e+06
2.73997e+06
2.73997e+06
2.73997e+06
2.73997e+06
2.73997e+06
2.73997e+06
2.73997e+06
2.73997e+06
2.73997e+06
2.73997e+06
2.73997e+06
2.73997e+06
2.73997e+06
2.73997e+06
2.73997e+06
2.73997e+06
2.73997e+06
2.73997e+06
2.73997e+06
2.73997e+06
2.73997e+06
2.73997e+06
2.73997e+06
2.73997e+06
2.73997e+06
2.73997e+06
2.73997e+06
2.73997e+06
2.73997e+06
2.73997e+06
2.73997e+06
2.73997e+06
2.73997e+06
2.73997e+06
2.73997e+06
2.73997e+06
2.73997e+06
2.73997e+06
2.73997e+06
2.73997e+06
2.73997e+06
2.73997e+06
2.73997e+06
2.73997e+06
2.73997e+06
2.73997e+06
2.73997e+06
2.73997e+06
2.73997e+06
2.73997e+06
2.73997e+06
2.73997e+06
2.73997e+06
2.73997e+06
2.73997e+06
2.73997e+06
2.73997e+06
2.73997e+06
2.73997e+06
2.73997e+06
2.73997e+06
2.73997e+06
2.73997e+06
2.73997e+06
652786
625699
592824
562494
537630
518142
502930
490926
481408
473915
468081
463555
459999
457139
454790
452850
451255
449958
448951
448179
447539
446999
446541
446154
445922
445757
445617
445498
445400
445317
445249
445194
445152
445123
445104
445097
445103
445120
445149
445189
445240
445301
445370
445445
445525
445607
445689
445769
445844
445914
445976
446031
446078
446116
446146
446168
446184
446207
446229
446242
446248
446248
446242
446232
446219
446204
446186
446167
446147
446127
446106
446085
446064
446044
446024
446004
445985
445966
445948
445930
201982
204275
202765
198637
193234
187592
182293
177538
173315
169530
166103
162991
160189
157699
155512
153600
151925
150453
149161
148033
147046
146185
145434
144779
143999
143210
142512
141930
141464
141062
140716
140422
140173
139965
139793
139656
139551
139476
139429
139409
139413
139438
139483
139544
139616
139697
139783
139869
139952
140030
140099
140158
140205
140241
140265
140277
140281
140252
140212
140169
140123
140075
140025
139974
139922
139869
139815
139762
139709
139656
139604
139553
139503
139453
139405
139358
139313
139269
139226
139184
58426.5
66314.6
74148.2
81421.5
87760.3
93000.9
97139.7
100250
102420
103724
104220
103970
103054
101572
99648
97409.4
94981
92472.8
89975.6
87558.4
85267.4
83129.7
81158.2
79356.7
77686.6
76142
74736.8
73447.7
72236.9
71134.2
70161.9
69313.8
68562.3
67896.3
67307.9
66788.9
66333.4
65935.9
65591.6
65296.2
65045.8
64836.5
64664.4
64525.5
64415.3
64329.5
64263.3
64212.3
64171.9
64137.8
64106.2
64073.9
64038.3
63997.5
63949.7
63894.7
63832
63746.3
63651.4
63552.4
63450.2
63344.9
63237.1
63127.2
63015.9
62903.6
62790.9
62678.3
62566.4
62455.3
62345.6
62237.5
62131.4
62027.4
61925.7
61826.4
61729.6
61635.6
61544.3
61455.8
11432.9
14237.9
18002.3
22617
27926.8
33696.4
39671
45619.8
51343.7
56677.7
61488.6
65670.8
69146.1
71865.8
73812.8
75002.7
75480.8
75319
74608.1
73450.5
71951.5
70211.5
68320.9
66356.4
64375.4
62419.7
60522.1
58703.7
56973
55340.7
53801.6
52351.5
50999.6
49759.5
48624
47579.5
46618.7
45736.1
44925.6
44182
43500.9
42878.6
42312
41797.5
41331.9
40911.7
40533.2
40192.7
39886
39608.8
39357.1
39126.7
38913.6
38714.1
38524.6
38344.5
38163.4
37979.3
37795
37612
37430.1
37248.9
37068
36887.4
36707
36527.1
36347.9
36169.9
35993.3
35818.4
35645.7
35475.5
35308
35143.5
34982.3
34824.5
34670.4
34520
34373.6
34231.1
3836.13
3639.04
3762.61
4344.13
5445.18
7122.63
9392.15
12223.3
15535.2
19267.5
23320.7
27575.6
31902.6
36177.2
40273.2
44075.7
47487.3
50433.3
52864.6
54757.9
56114.3
56957
57326.9
57278.2
56872.3
56172.6
55240.8
54134.2
52903.4
51591.8
50234.2
48857.4
47484.6
46124.5
44789.8
43493.9
42249.8
41060.6
39926.2
38846.5
37822
36853
35939.4
35080.7
34276.6
33526.5
32829.6
32184.8
31590.4
31044
30543
30084.3
29664.1
29278.4
28923.8
28592.8
28280.6
27984
27700.9
27429.7
27168.5
26915.3
26668.6
26427
26189.4
25955.3
25724.1
25495.6
25269.6
25046.3
24825.6
24607.7
24392.7
24181
23972.7
23768.2
23567.6
23371
23178.5
22990.2
4273.55
4021.39
3700.78
3356.46
3041.96
2821.55
2766.89
2950.9
3446.25
4268.49
5444.55
6985.98
8884.21
11097.6
13600
16341.3
19252.5
22253.6
25259.8
28189.8
30967.5
33524.4
35805.8
37773.3
39404.9
40693.7
41645.6
42277.8
42615.6
42689.7
42533.8
42182.2
41668.3
41022.9
40273.8
39446.8
38559.8
37631.5
36679.2
35717.3
34757.7
33810.4
32883.1
31981.9
31112
30277.6
29482
28727.8
28016.9
27350.3
26728
26149.7
25614.4
25119.5
24660.9
24235.8
23840.9
23472.9
23128.6
22804.7
22498.6
22207.3
21928.2
21659
21397.7
21142.7
20892.7
20646.7
20404.1
20164.3
19927.1
19692.1
19459.3
19228.8
19000.8
18775.7
18553.5
18334.2
18118
17904.9
3669.6
3749.81
3787.15
3770.02
3691.31
3550.78
3357.04
3128.65
2897.46
2697.99
2567.73
2546.66
2676.16
2997.4
3521
4260.82
5224.6
6409.31
7795.12
9362.9
11084.8
12923
14832.2
16763.5
18668.3
20500.5
22219
23792.1
25194.1
26407.2
27422
28236.5
28855.5
29288.9
29550.4
29656.6
29625.2
29474.8
29223.3
28888.3
28485.4
28029.1
27532.7
27008.5
26467.1
25917.8
25368.6
24825.8
24294.7
23779.6
23283.8
22809.3
22357.3
21928.9
21524.6
21144.2
20787.1
20452.2
20137.9
19842.5
19563.8
19299.7
19048
18806.6
18573.3
18346.5
18124.6
17906.2
17690.2
17476
17262.7
17049.9
16837.4
16625
16412.7
16200.8
15989.3
15778.4
15568.2
15358.8
2559.23
2669.16
2783.86
2898.01
3004.49
3094.82
3160
3191.62
3183.48
3133.36
3043.47
2920.99
2778.36
2635.12
2512.2
2431.1
2414.25
2484.31
2664.87
2963.22
3384.1
3930.28
4599.12
5379.49
6262.49
7231.95
8267.29
9344.25
10438.6
11526.2
12584.2
13592
14532.1
15391.2
16159.5
16831.7
17405.6
17883.6
18269.6
18569.5
18790.4
18940.4
19027.9
19061.3
19048.5
18997.1
18913.8
18804.8
18675.4
18530
18372.6
18206.5
18034.4
17858.8
17682
17505.8
17331.8
17161.2
16994.9
16833.5
16676.7
16524.5
16376.2
16231.2
16088.6
15947.6
15807.2
15666.5
15524.7
15381
15234.8
15085.7
14933.4
14777.7
14618.6
14456.1
14290.3
14121.5
13949.9
13775.4
1770.53
1830.04
1896.21
1969.75
2050.82
2138.84
2232.14
2327.84
2421.78
2508.84
2583.43
2640.08
2674.05
2682.15
2663.64
2620.42
2557.09
2481.05
2403.35
2336.01
2290.82
2279.61
2313.78
2404.81
2555.49
2768.63
3044.68
3380.04
3770.95
4211.15
4692.58
5205.85
5740.87
6287.37
6835.48
7376.14
7901.56
8405
8881.77
9328.9
9744.84
10129.2
10482.7
10806.6
11102.5
11372.5
11618.5
11842.1
12045
12228.7
12394.7
12543.9
12676.8
12793.9
12895.9
12983.5
13057.6
13119.2
13169.4
13209
13238.9
13260
13273
13278.6
13277.3
13269.2
13254.5
13232.8
13204.1
13168.2
13124.8
13074
13015.5
12949.4
12875.6
12794.1
12705.2
12609.1
12505.9
12395.5
1294.25
1326.13
1360.21
1397.01
1437.1
1481.18
1529.99
1584.13
1643.97
1709.4
1779.74
1853.58
1928.8
2002.61
2071.75
2132.85
2182.76
2218.85
2239.48
2244.4
2234.83
2213.46
2184.35
2153.37
2126.28
2109.05
2107.5
2127.08
2170.89
2241.26
2339.63
2466.11
2619.69
2798.36
2999.45
3219.75
3455.95
3704.24
3961.31
4224.4
4491.23
4760.02
5029.5
5298.84
5567.55
5835.41
6102.31
6368.15
6632.77
6895.76
7156.53
7414.52
7668.94
7918.81
8162.99
8400.26
8629.46
8849.46
9059.83
9260.25
9449.95
9628.33
9795.03
9949.95
10093.2
10224.7
10344.4