/*--------------------------------*- C++ -*----------------------------------*\
  =========                 |
  \\      /  F ield         | OpenFOAM: The Open Source CFD Toolbox
   \\    /   O peration     | Website:  https://openfoam.org
    \\  /    A nd           | Version:  13
     \\/     M anipulation  |
\*---------------------------------------------------------------------------*/
FoamFile
{
    format      ascii;
    class       volScalarField;
    location    "282";
    object      p;
}
// * * * * * * * * * * * * * * * * * * * * * * * * * * * * * * * * * * * * * //

dimensions      [0 2 -2 0 0 0 0];

internalField   nonuniform List<scalar> 
26820
(
0.924026
0.932383
0.951237
0.977793
1.00958
1.04589
1.086
0.923602
0.931956
0.950756
0.977248
1.00894
1.04512
1.08504
0.922813
0.931123
0.949832
0.976205
1.00771
1.04363
1.08317
0.921636
0.929863
0.948447
0.974638
1.00585
1.04139
1.08033
0.920074
0.928191
0.946613
0.972564
1.00339
1.03842
1.07655
0.918133
0.926116
0.944343
0.969993
1.00034
1.03472
1.07185
0.915821
0.923651
0.941647
0.966938
0.996711
1.03032
1.06624
0.913148
0.920808
0.93854
0.963415
0.992519
1.02523
1.05975
0.910123
0.917602
0.93504
0.95944
0.987783
1.01947
1.05238
0.906758
0.914048
0.931164
0.955034
0.982525
1.01306
1.04418
0.903065
0.910165
0.926933
0.950215
0.976769
1.00603
1.03516
0.899058
0.90597
0.922366
0.945006
0.970538
0.998394
1.02536
0.894752
0.901484
0.917487
0.939428
0.96386
0.990182
1.01482
0.890161
0.896726
0.912317
0.933505
0.956761
0.981415
1.00357
0.885301
0.891718
0.906878
0.92726
0.94927
0.972115
0.991659
0.880189
0.88648
0.901194
0.920719
0.941416
0.96231
0.979157
0.874841
0.881033
0.89528
0.913897
0.933216
0.952018
0.966129
0.869276
0.875405
0.889164
0.906815
0.924678
0.941236
0.952621
0.863509
0.869641
0.882931
0.899599
0.915938
0.930085
0.938768
0.85753
0.863725
0.876612
0.89242
0.907363
0.919169
0.925327
1.13271
1.18773
1.25
1.31991
1.3976
1.4837
1.57908
1.68461
1.80132
1.9309
2.07506
2.23426
2.40942
2.60211
2.81409
3.04717
3.30325
3.58436
3.89263
4.23026
4.5995
5.00253
5.44148
5.91823
6.43433
6.99078
7.58785
8.22478
8.89945
9.60797
10.3443
11.0995
11.8616
12.6148
13.3388
14.009
14.5954
15.0711
15.4072
15.5981
1.13154
1.18651
1.24868
1.31846
1.39599
1.48191
1.57708
1.68237
1.79882
1.92812
2.07195
2.23078
2.40552
2.59771
2.80912
3.04155
3.29688
3.57712
3.88439
4.22088
4.58878
4.99028
5.42745
5.90214
6.41585
6.96954
7.56343
8.1967
8.86716
9.57087
10.3017
11.0507
11.8059
12.5513
13.2668
13.9279
14.5053
14.9728
15.3006
15.4632
1.12927
1.18412
1.24614
1.31566
1.3929
1.4785
1.5733
1.67817
1.79412
1.92286
2.06605
2.22414
2.39803
2.58925
2.79954
3.03069
3.28455
3.56311
3.86843
4.20267
4.56798
4.96649
5.4002
5.87089
6.38
6.92838
7.51616
8.14241
8.80483
9.49937
10.2198
10.957
11.699
12.4298
13.1293
13.7734
14.3327
14.7814
15.0896
15.2238
1.12588
1.18052
1.24229
1.31144
1.38824
1.47333
1.56757
1.67178
1.787
1.91487
2.05707
2.21405
2.38666
2.57641
2.78503
3.01426
3.26591
3.54192
3.84431
4.17518
4.53659
4.93059
5.35911
5.82381
6.32598
6.86639
7.44498
8.06068
8.71101
9.39176
10.0965
10.8161
11.5383
12.247
12.9223
13.54
14.0709
14.4888
14.7652
14.8693
1.12139
1.17572
1.23716
1.30583
1.38203
1.46646
1.55994
1.66329
1.77751
1.90424
2.04514
2.20064
2.37155
2.55936
2.76576
2.99244
3.24115
3.51379
3.81231
4.1387
4.49495
4.883
5.30463
5.76139
6.25442
6.78427
7.35072
7.95247
8.58686
9.24941
9.93347
10.6297
11.3257
12.0053
12.6484
13.2309
13.7235
14.0998
14.3324
14.3999
1.11582
1.16976
1.23079
1.29884
1.3743
1.45792
1.55046
1.65273
1.76571
1.89103
2.03031
2.18397
2.35278
2.53818
2.74182
2.96533
3.21042
3.47888
3.77259
4.09344
4.4433
4.82398
5.23711
5.68406
6.16578
6.6826
7.23407
7.81864
8.43337
9.07351
9.73214
10.3997
11.0634
11.7071
12.3105
12.8494
13.2945
13.6192
13.7967
13.8194
1.1092
1.16264
1.22317
1.29049
1.36508
1.44771
1.53914
1.64013
1.75163
1.87525
2.01261
2.16408
2.33038
2.51292
2.71328
2.93302
3.17379
3.43728
3.72528
4.03955
4.38184
4.75378
5.15683
5.59216
6.06048
6.5619
7.09566
7.65992
8.25143
8.86512
9.49375
10.1274
10.7532
11.3545
11.911
12.3984
12.7871
13.0507
13.1622
13.1323
1.10153
1.15439
1.21433
1.2808
1.35438
1.43587
1.526
1.6255
1.73529
1.85696
1.99209
2.14102
2.30442
2.48364
2.68021
2.89561
3.13139
3.38915
3.67057
3.97726
4.31082
4.6727
5.06417
5.48614
5.93909
6.42281
6.93626
7.47725
8.04217
8.62558
9.21988
9.81483
10.3971
10.95
11.4527
11.8811
12.2051
12.3987
12.434
12.3441
1.09286
1.14503
1.20428
1.2698
1.34223
1.42243
1.51108
1.60889
1.71675
1.8362
1.96881
2.11487
2.27499
2.45046
2.64274
2.85323
3.08338
3.33469
3.60867
3.90683
4.23056
4.58113
4.95957
5.36655
5.80224
6.26613
6.75682
7.27175
7.8069
8.35646
8.91238
9.46406
9.99781
10.4965
10.9392
11.3015
11.553
11.6684
11.6181
11.4618
1.08319
1.13459
1.19307
1.25751
1.32865
1.40741
1.49443
1.59035
1.69605
1.81303
1.94283
2.0857
2.24216
2.41347
2.60099
2.80603
3.02994
3.27408
3.53985
3.82856
4.14143
4.4795
4.84356
5.23399
5.65066
6.09271
6.55835
7.04464
7.54711
8.0595
8.57334
9.07756
9.5581
9.9975
10.3744
10.6642
10.8363
10.8659
10.7216
10.4932
1.07257
1.12309
1.18072
1.24396
1.31369
1.39087
1.47607
1.56992
1.67324
1.78751
1.91423
2.0536
2.20606
2.3728
2.5551
2.75418
2.97125
3.20757
3.46436
3.74276
4.04379
4.36825
4.71666
5.08912
5.48513
5.90349
6.342
6.79726
7.26438
7.7366
8.20498
8.65799
9.08112
9.45653
9.76246
9.97428
10.0605
9.99794
9.75204
9.44721
1.06101
1.11057
1.16725
1.22918
1.29737
1.37283
1.45606
1.54766
1.6484
1.75972
1.8831
2.01865
2.16677
2.32857
2.50522
2.69784
2.90753
3.1354
3.3825
3.64979
3.93807
4.24789
4.57948
4.93263
5.30651
5.69949
6.10896
6.53108
6.96044
7.38981
7.80975
8.20822
8.57024
8.87759
9.10807
9.23698
9.23198
9.07169
8.7178
8.33335
1.04856
1.09705
1.15271
1.2132
1.27973
1.35334
1.43445
1.52361
1.62158
1.72973
1.8495
1.98097
2.12442
2.28091
2.45151
2.63722
2.839
3.05783
3.29458
3.55002
3.8247
4.11893
4.43265
4.76531
5.11569
5.48179
5.86054
6.24762
6.63713
7.02132
7.39022
7.7313
8.02906
8.2649
8.41616
8.45808
8.35739
8.09493
7.62774
7.16195
1.03524
1.08258
1.13712
1.19607
1.26082
1.33245
1.41129
1.49785
1.59285
1.69761
1.81354
1.94065
2.07914
2.22997
2.39413
2.5725
2.7659
2.97515
3.20094
3.44384
3.70417
3.98196
4.27684
4.58793
4.91364
5.25153
5.59809
5.94851
6.29638
6.63342
6.94911
7.23043
7.46137
7.62291
7.69192
7.64364
7.44381
7.07575
6.49124
5.94395
1.02106
1.06719
1.12054
1.17782
1.24069
1.31021
1.38663
1.47043
1.56228
1.66346
1.77532
1.89781
2.03105
2.17592
2.33328
2.5039
2.68847
2.88764
3.10193
3.33167
3.57695
3.83754
4.11275
4.40134
4.70134
5.0099
5.32303
5.63544
5.94019
6.22848
6.48926
6.70897
6.8711
6.95624
6.94077
6.79995
6.49854
6.02254
5.31817
4.69084
1.00604
1.05093
1.103
1.15847
1.21936
1.28667
1.36054
1.44143
1.52996
1.62736
1.73494
1.85258
1.9803
2.1189
2.26914
2.43164
2.60698
2.79562
2.9979
3.21394
3.44358
3.68629
3.94109
4.20639
4.47983
4.75811
5.03682
5.31013
5.57063
5.80897
6.01356
6.17035
6.26232
6.26967
6.16831
5.93354
5.52913
4.94422
4.11888
3.41459
0.990155
1.03386
1.08453
1.13808
1.19691
1.2619
1.33307
1.41091
1.49597
1.5894
1.69251
1.80507
1.92703
2.05909
2.2019
2.35596
2.52169
2.69941
2.88924
3.09109
3.30456
3.52883
3.76262
4.00397
4.25015
4.49743
4.74094
4.97438
5.18981
5.37738
5.52498
5.61808
5.63915
5.56806
5.38024
5.0511
4.54336
3.85004
2.90397
2.1276
0.973315
1.01608
1.06516
1.11667
1.17339
1.23593
1.3043
1.37896
1.46039
1.5497
1.64814
1.75542
1.87139
1.99666
2.13177
2.27709
2.4329
2.59932
2.77632
2.96358
3.16044
3.36581
3.57809
3.79499
4.01337
4.22913
4.43691
4.62996
4.79986
4.93624
5.02652
5.05569
5.00577
4.85633
4.58232
4.15942
3.54909
2.74915
1.68414
0.84247
0.955292
0.997772
1.04488
1.09427
1.14884
1.20885
1.27429
1.34564
1.42331
1.50833
1.60194
1.70375
1.81353
1.93179
2.05896
2.19528
2.34087
2.49571
2.65955
2.83187
3.01176
3.19787
3.38827
3.58033
3.77058
3.95447
4.12624
4.27869
4.40291
4.48809
4.52117
4.48672
4.36634
4.13937
3.78031
3.26523
2.55414
1.65062
0.470092
-0.4281
0.936125
0.978966
1.02369
1.07098
1.12334
1.1807
1.24311
1.31104
1.38482
1.46542
1.55404
1.65022
1.75362
1.86467
1.98368
2.11077
2.2459
2.3889
2.53932
2.69643
2.85908
3.02565
3.19391
3.36093
3.52284
3.67473
3.81044
3.92234
4.00108
4.03542
4.01188
3.91466
3.72499
3.42203
2.97986
2.37516
1.56621
0.563422
-0.727609
-1.67143
0.91798
0.959286
1.00129
1.04685
1.09695
1.15154
1.21084
1.27525
1.34502
1.42106
1.50455
1.59494
1.69181
1.79547
1.90615
2.02381
2.14829
2.27924
2.41604
2.55773
2.70295
2.84981
2.9958
3.13767
3.27122
3.39118
3.49101
3.56268
3.59645
3.5807
3.50157
3.34294
3.08574
2.70904
2.18651
1.49568
0.592801
-0.503697
-1.89879
-2.87502
0.901237
0.937999
0.977886
1.02197
1.0697
1.12144
1.17755
1.23834
1.30399
1.37537
1.45361
1.53808
1.62826
1.7244
1.82658
1.93466
2.04832
2.16706
2.29009
2.41623
2.54391
2.67098
2.79468
2.91144
3.01677
3.10506
3.1694
3.20143
3.19106
3.12632
2.99305
2.77488
2.45249
2.00498
1.40561
0.633034
-0.358889
-1.54236
-3.03442
-4.02655
0.88375
0.916074
0.954004
0.996443
1.04166
1.09047
1.14332
1.2004
1.26184
1.32846
1.40133
1.47977
1.56315
1.65164
1.7452
1.84357
1.9463
2.05272
2.16188
2.27241
2.38251
2.48982
2.5913
2.68313
2.76052
2.81755
2.84703
2.84025
2.78685
2.67458
2.48903
2.21366
1.82898
1.31422
0.642248
-0.206846
-1.28206
-2.54457
-4.12464
-5.1171
0.864829
0.893785
0.929838
0.970299
1.01288
1.05872
1.10822
1.16152
1.21867
1.28043
1.34785
1.42016
1.49664
1.57737
1.66222
1.75079
1.8425
1.93655
2.0318
2.12671
2.21928
2.30693
2.38639
2.45358
2.50345
2.52984
2.52525
2.48075
2.38571
2.22769
1.99208
1.6623
1.21872
0.640866
-0.098791
-1.01837
-2.17028
-3.50328
-5.15752
-6.14084
0.844786
0.871188
0.905323
0.943562
0.983429
1.02625
1.07235
1.12179
1.17457
1.2314
1.29328
1.35939
1.42889
1.5018
1.57787
1.65658
1.73723
1.81888
1.90023
1.97958
2.05474
2.12292
2.18064
2.2236
2.24653
2.24303
2.20538
2.12444
1.98941
1.7877
1.50462
1.1236
0.624986
-0.0112434
-0.813063
-1.79641
-3.01746
-4.41429
-6.12036
-7.08962
0.824011
0.84829
0.880406
0.916274
0.953387
0.993136
1.03577
1.08129
1.12965
1.18149
1.23777
1.2976
1.36008
1.42511
1.49235
1.56117
1.63077
1.70005
1.76757
1.83147
1.8894
1.93838
1.97474
1.99399
1.99067
1.95818
1.88863
1.77275
1.59959
1.35653
1.02886
0.600152
0.0507935
-0.638616
-1.4965
-2.53633
-3.81718
-5.27116
-7.00638
-7.95394
0.802709
0.825056
0.855101
0.888498
0.922814
0.95945
0.998559
1.04011
1.084
1.13081
1.18143
1.23495
1.29036
1.34748
1.40588
1.46483
1.5234
1.58037
1.63417
1.6828
1.72374
1.75386
1.76933
1.76549
1.73672
1.67627
1.57615
1.42698
1.21778
0.935947
0.566845
0.0943016
-0.501164
-1.23813
-2.14543
-3.2341
-4.56474
-6.06285
-7.81278
-8.7267
0.780982
0.801479
0.829447
0.860296
0.891774
0.925259
0.960802
0.998348
1.03773
1.07947
1.1244
1.17157
1.21989
1.26911
1.31868
1.36779
1.41539
1.46016
1.50039
1.53397
1.55822
1.5699
1.56502
1.53879
1.48548
1.39824
1.269
1.08835
0.845353
0.527517
0.120367
-0.391892
-1.02852
-1.80708
-2.75667
-3.88616
-5.25616
-6.78295
-8.5351
-9.40281
0.758897
0.777595
0.803486
0.831723
0.86033
0.890633
0.922576
0.956082
0.990924
1.02757
1.06679
1.10761
1.14885
1.19017
1.23095
1.27027
1.307
1.33971
1.36658
1.38537
1.39331
1.38701
1.3624
1.31457
1.2377
1.12492
0.968123
0.757944
0.483543
0.132635
-0.309001
-0.856656
-1.52926
-2.34322
-3.32755
-4.48932
-5.88689
-7.43002
-9.16785
-9.97875
0.736517
0.753454
0.777258
0.802833
0.828546
0.855642
0.883959
0.913403
0.943695
0.975217
1.00874
1.04321
1.07738
1.11085
1.14289
1.17252
1.1985
1.21932
1.23306
1.23738
1.22941
1.20566
1.16198
1.09341
0.994071
0.85708
0.674386
0.436722
0.13342
-0.247508
-0.719936
-1.29853
-2.00175
-2.84475
-3.85598
-5.04109
-6.45469
-8.0027
-9.70638
-10.4529
0.713899
0.729103
0.750801
0.773677
0.796485
0.820356
0.84503
0.8704
0.896137
0.922545
0.950362
0.978506
1.00565
1.03131
1.0547
1.07474
1.09013
1.09927
1.10015
1.09035
1.06691
1.0263
0.964285
0.875871
0.755196
0.595405
0.388544
0.125514
-0.204108
-0.611923
-1.11137
-1.71636
-2.44474
-3.31042
-4.34064
-5.53999
-6.95888
-8.49889
-10.1476
-10.8256
0.691097
0.704583
0.724158
0.74431
0.76421
0.784842
0.805865
0.827159
0.848348
0.869656
0.89179
0.913634
0.933795
0.951727
0.96656
0.977152
0.982135
0.979819
0.96814
0.9446
0.906193
0.849328
0.769747
0.662456
0.521626
0.340492
0.111244
-0.174984
-0.528298
-0.959831
-1.48249
-2.10933
-2.85741
-3.73942
-4.78097
-5.98573
-7.39892
-8.91691
-10.4901
-11.0989
0.668157
0.679939
0.697372
0.714785
0.731782
0.74917
0.766542
0.783767
0.800422
0.816655
0.833136
0.848729
0.861977
0.872269
0.878662
0.87996
0.874731
0.861221
0.837311
0.80045
0.747591
0.67512
0.578781
0.453606
0.293841
0.0928533
-0.156972
-0.464206
-0.838576
-1.29066
-1.83274
-2.47697
-3.23932
-4.13145
-5.17699
-6.37861
-7.77471
-9.25624
-10.7344
-11.2766
0.645126
0.655215
0.67049
0.685154
0.699263
0.713406
0.727136
0.740309
0.752454
0.763646
0.774517
0.783919
0.790336
0.79309
0.791181
0.783359
0.768137
0.743714
0.707923
0.65818
0.591416
0.504017
0.39175
0.24971
0.0722516
-0.147084
-0.415669
-0.741724
-1.13453
-1.60407
-2.16185
-2.81907
-3.59044
-4.48665
-5.52925
-6.71936
-8.08715
-9.51769
-10.8829
-11.3639
0.622048
0.630456
0.643556
0.655471
0.666713
0.677616
0.687724
0.696867
0.704536
0.710729
0.716046
0.719331
0.719009
0.714346
0.704284
0.687532
0.662557
0.627519
0.580219
0.518054
0.437952
0.336319
0.208974
0.0511038
-0.142799
-0.378977
-0.664514
-1.00725
-1.41594
-1.89987
-2.4697
-3.13566
-3.91108
-4.80568
-5.83888
-7.0094
-8.33827
-9.70321
-10.94
-11.3674
0.598967
0.605702
0.616618
0.625785
0.634194
0.641864
0.648378
0.653523
0.65676
0.658005
0.657834
0.655088
0.648131
0.636184
0.618133
0.592655
0.558182
0.512842
0.454421
0.380309
0.287452
0.172293
0.0307287
-0.141935
-0.351039
-0.602586
-0.903314
-1.26061
-1.68265
-2.17801
-2.75645
-3.42717
-4.20197
-5.08962
-6.10754
-7.25079
-8.53113
-9.816
-10.9125
-11.2947
0.57593
0.580993
0.589722
0.596149
0.601765
0.606216
0.609173
0.610358
0.609215
0.60557
0.599988
0.591308
0.577832
0.558745
0.532883
0.498898
0.455194
0.399881
0.330738
0.245168
0.140145
0.0121755
-0.142755
-0.329196
-0.552272
-0.817708
-1.13187
-1.50166
-1.93467
-2.4387
-3.02253
-3.69428
-4.46411
-5.33991
-6.33721
-7.44605
-8.66977
-9.86088
-10.8096
-11.1549
0.55298
0.55636
0.562916
0.566606
0.569483
0.570729
0.570178
0.567444
0.561984
0.553514
0.542609
0.528101
0.50823
0.482156
0.44867
0.406406
0.353747
0.288797
0.209338
0.112796
-0.00380549
-0.143878
-0.311316
-0.510498
-0.746319
-1.02421
-1.35014
-1.7305
-2.17224
-2.68236
-3.26858
-3.93788
-4.69886
-5.55842
-6.52992
-7.59848
-8.75977
-9.84491
-10.6437
-10.9585
0.530191
0.531836
0.536265
0.537214
0.537423
0.535478
0.53148
0.524874
0.515173
0.501947
0.48582
0.465607
0.439477
0.406583
0.36567
0.315367
0.25404
0.179799
0.0904439
-0.0165614
-0.144129
-0.295576
-0.474662
-0.685582
-0.932981
-1.22196
-1.55808
-1.94719
-2.39555
-2.90936
-3.49523
-4.15895
-4.90765
-5.74709
-6.6869
-7.71381
-8.80703
-9.77656
-10.4295
-10.7174
0.507571
0.507411
0.509787
0.507981
0.505598
0.500475
0.493095
0.482663
0.4688
0.450883
0.429626
0.403825
0.371564
0.332014
0.283868
0.22576
0.156047
0.0728535
-0.0259941
-0.142983
-0.280948
-0.443098
-0.63304
-0.854766
-1.11265
-1.41146
-1.7563
-2.15248
-2.60554
-3.12087
-3.704
-4.35938
-5.09282
-5.90923
-6.81212
-7.79907
-8.81912
-9.66949
-10.1868
-10.4457
0.846135
0.851485
0.862119
0.874563
0.88515
0.891116
0.89079
0.827874
0.831599
0.838564
0.845826
0.850314
0.849779
0.843359
0.80682
0.80885
0.8123
0.814836
0.814096
0.808363
0.797256
0.782948
0.783414
0.783697
0.782106
0.777044
0.767342
0.753284
0.756377
0.755487
0.753059
0.748078
0.739732
0.727383
0.711816
0.727361
0.725377
0.720812
0.713305
0.702758
0.688964
0.673001
0.696291
0.693516
0.687453
0.678309
0.666566
0.652332
0.636815
0.663677
0.660426
0.653504
0.643556
0.631482
0.617595
0.603107
0.630119
0.626683
0.61948
0.609444
0.597727
0.584757
0.571663
0.596255
0.592877
0.585866
0.5763
0.565436
0.553739
0.542216
0.562711
0.559573
0.553098
0.544388
0.534689
0.524456
0.514557
0.530056
0.527273
0.521545
0.513912
0.505526
0.496802
0.48847
0.498767
0.49639
0.491505
0.485033
0.477986
0.470724
0.463851
0.469203
0.467238
0.463198
0.457861
0.452081
0.446158
0.440582
0.441606
0.440025
0.436771
0.432478
0.427842
0.423104
0.418661
0.416103
0.414859
0.412295
0.408909
0.405257
0.401526
0.398033
0.392727
0.391767
0.389784
0.387163
0.384335
0.381444
0.378739
0.371434
0.370704
0.369191
0.367189
0.365026
0.36281
0.360736
0.35213
0.351581
0.350443
0.348933
0.3473
0.345621
0.344051
0.33468
0.334271
0.33342
0.332289
0.331064
0.329802
0.328621
0.318939
0.318637
0.318007
0.317168
0.316257
0.315315
0.314435
0.304747
0.304523
0.304057
0.303436
0.30276
0.30206
0.301406
0.291956
0.291792
0.29145
0.290993
0.290495
0.289977
0.289493
0.280415
0.280294
0.280042
0.279705
0.279338
0.278954
0.278597
0.269998
0.26991
0.269725
0.269478
0.269208
0.268925
0.268662
0.260575
0.260509
0.260373
0.260191
0.259992
0.259783
0.259589
0.252046
0.251998
0.251898
0.251764
0.251618
0.251464
0.251322
0.244305
0.24427
0.244196
0.244097
0.243989
0.243875
0.24377
0.237278
0.237252
0.237198
0.237125
0.237045
0.236961
0.236883
0.230879
0.23086
0.23082
0.230765
0.230706
0.230643
0.230586
0.225056
0.225041
0.225011
0.224971
0.224927
0.224881
0.224838
0.219743
0.219732
0.21971
0.21968
0.219647
0.219611
0.219579
0.21491
0.214902
0.214885
0.214862
0.214837
0.214811
0.214787
0.21052
0.210514
0.210501
0.210483
0.210464
0.210443
0.210425
0.20657
0.206566
0.206555
0.206542
0.206527
0.206511
0.206496
0.203062
0.203058
0.20305
0.203039
0.203027
0.203014
0.203002
0.200036
0.200033
0.200026
0.200017
0.200007
0.199996
0.199986
0.197549
0.197546
0.19754
0.197532
0.197524
0.197515
0.197506
0.19571
0.195707
0.195702
0.195695
0.195687
0.195679
0.195671
0.194673
0.19467
0.194665
0.194659
0.194651
0.194644
0.194636
0.882865
0.862563
0.840951
0.822249
0.804074
0.785014
0.765322
0.74544
0.725479
0.705402
0.685206
0.664927
0.6446
0.624253
0.603907
0.583588
0.563318
0.543124
0.523029
0.503064
0.833342
0.810879
0.788444
0.770954
0.754711
0.737571
0.719915
0.702367
0.684992
0.667656
0.650312
0.63299
0.615721
0.598516
0.581381
0.564323
0.547351
0.530469
0.513669
0.496961
0.785042
0.765131
0.745611
0.730485
0.716357
0.701317
0.685797
0.670421
0.655245
0.640133
0.625044
0.610015
0.595074
0.580227
0.565474
0.550821
0.536274
0.521843
0.507536
0.493374
0.739795
0.722375
0.705142
0.691401
0.678538
0.665041
0.651255
0.637688
0.624381
0.611211
0.598132
0.585164
0.572321
0.559595
0.546978
0.534461
0.522037
0.509702
0.497436
0.485251
0.697921
0.682926
0.668024
0.655911
0.644612
0.632912
0.621038
0.609374
0.597954
0.586677
0.575501
0.564439
0.5535
0.542681
0.531975
0.52138
0.510893
0.500516
0.490241
0.480079
0.659404
0.646641
0.633868
0.623246
0.613313
0.603118
0.59281
0.582685
0.572777
0.56301
0.55335
0.543803
0.534375
0.52506
0.515849
0.506736
0.497713
0.488777
0.479915
0.471137
0.62403
0.613256
0.602388
0.593157
0.584509
0.575715
0.566868
0.55819
0.54971
0.541371
0.533145
0.525033
0.517039
0.509158
0.501383
0.493709
0.48613
0.478643
0.471238
0.463922
0.591442
0.582384
0.573169
0.565187
0.557692
0.550123
0.542531
0.535081
0.527798
0.52064
0.513583
0.506626
0.49977
0.493013
0.486346
0.479765
0.473265
0.466844
0.460491
0.454218
0.561294
0.553703
0.545918
0.539067
0.532623
0.526154
0.519686
0.51334
0.507141
0.501058
0.495071
0.489179
0.483384
0.477682
0.472067
0.466536
0.461083
0.455707
0.450397
0.445162
0.533187
0.526828
0.520256
0.5144
0.508884
0.503369
0.497864
0.492462
0.487182
0.482003
0.476908
0.471895
0.466965
0.462116
0.457342
0.452641
0.448008
0.443443
0.438938
0.434501
0.506856
0.50154
0.496012
0.491045
0.486365
0.481702
0.477054
0.472493
0.468039
0.463674
0.459385
0.455171
0.451031
0.446965
0.442968
0.439037
0.43517
0.431364
0.427614
0.423925
0.482006
0.477561
0.472915
0.468721
0.464769
0.460839
0.456924
0.453081
0.449329
0.445652
0.442042
0.438496
0.435014
0.431596
0.428238
0.424939
0.421696
0.418508
0.41537
0.412289
0.458525
0.454824
0.45094
0.447429
0.444126
0.440845
0.437577
0.434372
0.431244
0.428181
0.425177
0.422229
0.419338
0.416502
0.413721
0.410991
0.408311
0.40568
0.403095
0.400559
0.436251
0.433175
0.429935
0.42701
0.424264
0.421537
0.41882
0.416156
0.413556
0.411013
0.408519
0.406074
0.403677
0.401329
0.399028
0.396772
0.394561
0.392393
0.390266
0.388185
0.415197
0.412657
0.409974
0.407561
0.405301
0.403058
0.400822
0.39863
0.396493
0.394405
0.39236
0.390355
0.388394
0.386474
0.384594
0.382755
0.380954
0.379191
0.377465
0.375778
0.395292
0.393203
0.390989
0.389008
0.387158
0.385321
0.38349
0.381694
0.379946
0.378238
0.376567
0.374931
0.373332
0.371768
0.37024
0.368746
0.367287
0.365861
0.364467
0.363108
0.376601
0.374895
0.373084
0.371472
0.369973
0.368483
0.366998
0.365542
0.364126
0.362745
0.361394
0.360073
0.358784
0.357525
0.356297
0.355098
0.353929
0.352789
0.351677
0.350595
0.359081
0.357695
0.356219
0.354913
0.353703
0.3525
0.3513
0.350125
0.348983
0.34787
0.346783
0.345722
0.344687
0.343679
0.342697
0.34174
0.340809
0.339903
0.339022
0.338168
0.342784
0.341665
0.340472
0.339422
0.338453
0.33749
0.336529
0.335588
0.334675
0.333787
0.332921
0.332076
0.331253
0.330453
0.329675
0.328919
0.328185
0.327473
0.326782
0.326114
0.327655
0.326755
0.325793
0.324952
0.324179
0.32341
0.322643
0.321892
0.321165
0.320458
0.31977
0.3191
0.318448
0.317816
0.317203
0.316608
0.316033
0.315476
0.314937
0.314418
0.313704
0.312985
0.312215
0.311545
0.310931
0.310322
0.309712
0.309117
0.308542
0.307984
0.307441
0.306913
0.306401
0.305905
0.305425
0.304961
0.304513
0.304081
0.303665
0.303265
0.300853
0.300281
0.299665
0.299132
0.298646
0.298164
0.297681
0.29721
0.296756
0.296316
0.295888
0.295474
0.295072
0.294685
0.29431
0.293949
0.293602
0.293268
0.292948
0.292642
0.289078
0.288624
0.288134
0.287712
0.287329
0.286948
0.286568
0.286197
0.28584
0.285495
0.28516
0.284836
0.284523
0.284221
0.28393
0.283651
0.283383
0.283127
0.282882
0.282649
0.278284
0.277925
0.277536
0.277202
0.2769
0.2766
0.276301
0.276009
0.275728
0.275458
0.275196
0.274943
0.274699
0.274465
0.27424
0.274024
0.273818
0.273622
0.273435
0.273258
0.268427
0.268144
0.267836
0.267572
0.267335
0.2671
0.266865
0.266636
0.266416
0.266205
0.266001
0.265804
0.265615
0.265433
0.265259
0.265094
0.264936
0.264786
0.264644
0.26451
0.259412
0.259189
0.258945
0.258738
0.258551
0.258367
0.258182
0.258003
0.257831
0.257666
0.257507
0.257354
0.257207
0.257067
0.256933
0.256805
0.256684
0.25657
0.256462
0.256362
0.251188
0.251013
0.250821
0.250658
0.250512
0.250368
0.250223
0.250083
0.249949
0.249821
0.249697
0.249578
0.249465
0.249356
0.249253
0.249156
0.249063
0.248976
0.248895
0.248819
0.243668
0.243531
0.243381
0.243253
0.243139
0.243026
0.242913
0.242804
0.2427
0.2426
0.242503
0.242411
0.242324
0.24224
0.242161
0.242086
0.242015
0.241949
0.241888
0.24183
0.236807
0.2367
0.236582
0.236482
0.236393
0.236305
0.236217
0.236133
0.236051
0.235974
0.2359
0.235828
0.235761
0.235696
0.235636
0.235578
0.235524
0.235474
0.235428
0.235385
0.230528
0.230445
0.230354
0.230276
0.230206
0.230138
0.23007
0.230004
0.229941
0.229881
0.229824
0.229769
0.229717
0.229667
0.229621
0.229577
0.229536
0.229498
0.229462
0.22943
0.224794
0.22473
0.224659
0.224599
0.224545
0.224492
0.22444
0.224389
0.22434
0.224294
0.22425
0.224208
0.224168
0.22413
0.224094
0.224061
0.224029
0.224001
0.223974
0.22395
0.219545
0.219497
0.219443
0.219396
0.219355
0.219314
0.219274
0.219235
0.219197
0.219162
0.219128
0.219096
0.219065
0.219036
0.219009
0.218983
0.21896
0.218938
0.218917
0.218899
0.21476
0.214724
0.214683
0.214647
0.214616
0.214585
0.214554
0.214524
0.214496
0.214469
0.214443
0.214418
0.214395
0.214373
0.214352
0.214333
0.214315
0.214298
0.214283
0.214269
0.210404
0.210378
0.210347
0.21032
0.210296
0.210273
0.21025
0.210227
0.210206
0.210186
0.210166
0.210147
0.21013
0.210113
0.210097
0.210082
0.210069
0.210056
0.210044
0.210033
0.20648
0.206461
0.206439
0.206419
0.206401
0.206384
0.206367
0.20635
0.206334
0.206319
0.206305
0.206291
0.206277
0.206265
0.206253
0.206242
0.206231
0.206221
0.206212
0.206204
0.20299
0.202977
0.202961
0.202947
0.202934
0.202921
0.202909
0.202897
0.202886
0.202874
0.202864
0.202853
0.202844
0.202834
0.202825
0.202817
0.202809
0.202801
0.202794
0.202787
0.199976
0.199968
0.199957
0.199947
0.199938
0.19993
0.199921
0.199913
0.199904
0.199896
0.199889
0.199881
0.199874
0.199867
0.19986
0.199854
0.199848
0.199842
0.199836
0.199831
0.197498
0.197493
0.197486
0.19748
0.197474
0.197468
0.197462
0.197456
0.19745
0.197445
0.197439
0.197434
0.197429
0.197423
0.197418
0.197413
0.197409
0.197404
0.197399
0.197395
0.195664
0.195661
0.195657
0.195653
0.195649
0.195645
0.195641
0.195637
0.195633
0.19563
0.195626
0.195622
0.195618
0.195614
0.19561
0.195606
0.195602
0.195598
0.195594
0.19559
0.194631
0.194628
0.194626
0.194623
0.19462
0.194617
0.194614
0.194611
0.194608
0.194605
0.194602
0.194599
0.194596
0.194592
0.194589
0.194586
0.194582
0.194579
0.194575
0.194572
-10.1554
-9.859
-9.55736
-9.25938
-8.97098
-8.69405
-8.4278
-8.17056
-7.92097
-7.67834
-7.44232
-7.21256
-6.98849
-6.76937
-6.55448
-6.34318
-6.13499
-5.92956
-5.72651
-5.52552
-5.32621
-5.12826
-4.93137
-4.73533
-4.53998
-4.34521
-4.15093
-3.95715
-3.76389
-3.5713
-3.37958
-3.18901
-2.99997
-2.81294
-2.62844
-2.4471
-2.26964
-2.0968
-1.92939
-1.76821
-1.61404
-1.4676
-1.3295
-1.20022
-1.08007
-0.969211
-0.867586
-0.774985
-0.691041
-0.615255
-0.547045
-0.485787
-0.430814
-0.381446
-0.337022
-0.296929
-0.260611
-0.227578
-0.197401
-0.169717
-0.144217
-0.120631
-0.0987334
-0.0783357
-0.0592748
-0.0414208
-0.0246788
-0.00895423
0.00583211
0.0197476
0.0328524
0.0451886
0.0567958
0.0677188
0.0779913
0.0876427
0.0967059
0.105223
0.113235
0.120789
-9.93204
-9.67503
-9.41601
-9.15711
-8.8987
-8.64224
-8.38899
-8.13982
-7.89551
-7.6568
-7.4241
-7.19728
-6.9758
-6.75889
-6.54583
-6.33604
-6.12911
-5.92472
-5.72256
-5.52232
-5.32365
-5.12624
-4.92981
-4.73416
-4.53915
-4.34465
-4.15063
-3.95704
-3.76396
-3.57152
-3.37993
-3.18946
-3.00051
-2.81355
-2.62911
-2.44781
-2.27037
-2.09755
-1.93014
-1.76895
-1.61476
-1.46829
-1.33014
-1.20081
-1.08062
-0.969697
-0.868011
-0.775349
-0.691346
-0.615504
-0.547242
-0.485936
-0.430921
-0.381515
-0.33706
-0.29694
-0.2606
-0.22755
-0.19736
-0.169665
-0.144157
-0.120567
-0.0986652
-0.0782656
-0.0592042
-0.0413506
-0.0246098
-0.008887
0.00589718
0.0198103
0.0329123
0.0452458
0.05685
0.0677702
0.0780399
0.0876885
0.096749
0.105264
0.113273
0.120824
-9.53305
-9.35676
-9.16148
-8.95389
-8.73434
-8.50792
-8.27996
-8.05299
-7.82776
-7.60462
-7.38391
-7.16589
-6.9507
-6.73834
-6.52868
-6.3216
-6.11692
-5.91446
-5.71398
-5.51517
-5.31771
-5.12133
-4.92577
-4.73086
-4.53647
-4.34252
-4.14896
-3.95577
-3.76303
-3.57088
-3.37954
-3.18929
-3.00052
-2.81371
-2.62938
-2.44818
-2.27082
-2.09806
-1.9307
-1.76953
-1.61535
-1.46886
-1.3307
-1.20135
-1.08111
-0.970144
-0.868408
-0.775693
-0.691635
-0.615739
-0.547425
-0.486071
-0.431012
-0.381568
-0.337079
-0.296931
-0.260569
-0.2275
-0.197295
-0.169589
-0.144073
-0.120478
-0.0985733
-0.0781723
-0.0591109
-0.0412584
-0.0245197
-0.0087995
0.00598158
0.0198912
0.0329897
0.0453193
0.0569197
0.0678361
0.0781021
0.0877471
0.0968041
0.105315
0.113322
0.120869
-8.79218
-8.70949
-8.60877
-8.49548
-8.36214
-8.20884
-8.04057
-7.86137
-7.67385
-7.48027
-7.28288
-7.08361
-6.88381
-6.68421
-6.48509
-6.28656
-6.08867
-5.89151
-5.69512
-5.49951
-5.30459
-5.11027
-4.91643
-4.72298
-4.52983
-4.33694
-4.14429
-3.95187
-3.7598
-3.56822
-3.37738
-3.18755
-2.99915
-2.81266
-2.6286
-2.44763
-2.27046
-2.09786
-1.93062
-1.76956
-1.61546
-1.46905
-1.33093
-1.2016
-1.08137
-0.970404
-0.868654
-0.775915
-0.691827
-0.615897
-0.547546
-0.486156
-0.431063
-0.381586
-0.337069
-0.296896
-0.260513
-0.227428
-0.19721
-0.169494
-0.143972
-0.120372
-0.0984652
-0.0780638
-0.0590033
-0.0411529
-0.024417
-0.00870033
0.00607683
0.0199823
0.0330763
0.0454015
0.0569975
0.0679094
0.0781712
0.087812
0.096865
0.105372
0.113375
0.120919
-7.84177
-7.83548
-7.81483
-7.78264
-7.73001
-7.65426
-7.55918
-7.44885
-7.32563
-7.19008
-7.04308
-6.88651
-6.7223
-6.552
-6.37682
-6.19771
-6.01558
-5.8313
-5.64554
-5.45868
-5.27094
-5.08248
-4.89342
-4.70384
-4.51385
-4.32353
-4.13299
-3.94234
-3.75175
-3.56143
-3.37166
-3.18276
-2.99517
-2.80938
-2.62592
-2.44547
-2.26876
-2.09654
-1.92963
-1.76884
-1.61498
-1.46875
-1.33079
-1.20157
-1.08143
-0.970521
-0.868803
-0.776075
-0.691982
-0.616033
-0.547656
-0.486235
-0.431109
-0.381601
-0.337053
-0.296854
-0.260448
-0.227343
-0.19711
-0.169384
-0.143854
-0.120249
-0.0983399
-0.0779381
-0.0588788
-0.0410309
-0.0242987
-0.0085863
0.00618611
0.0200865
0.0331754
0.0454952
0.0570859
0.0679926
0.0782494
0.0878854
0.0969337
0.105437
0.113435
0.120975
-6.89222
-6.93077
-6.95591
-6.97103
-6.97275
-6.9558
-6.92038
-6.86932
-6.80473
-6.72591
-6.63191
-6.52467
-6.40662
-6.2795
-6.14394
-6.0001
-5.84879
-5.69121
-5.52832
-5.36076
-5.18916
-5.01416
-4.83633
-4.65616
-4.47401
-4.29021
-4.10509
-3.91898
-3.7322
-3.54508
-3.35796
-3.1713
-2.9856
-2.8014
-2.61934
-2.44011
-2.26445
-2.09313
-1.92698
-1.76685
-1.61352
-1.46774
-1.33013
-1.2012
-1.08128
-0.970521
-0.868905
-0.776237
-0.692168
-0.616219
-0.547826
-0.486376
-0.431211
-0.381661
-0.337072
-0.296835
-0.260396
-0.227264
-0.197009
-0.169266
-0.143724
-0.120112
-0.0981982
-0.0777947
-0.0587359
-0.0408902
-0.0241618
-0.00845423
0.00631276
0.0202074
0.0332902
0.0456038
0.0571882
0.0680888
0.0783396
0.0879699
0.0970126
0.10551
0.113503
0.121039
-6.0231
-6.09447
-6.15431
-6.19947
-6.22795
-6.24186
-6.24178
-6.22749
-6.20163
-6.16518
-6.11513
-6.05159
-5.9767
-5.89211
-5.7969
-5.69003
-5.57283
-5.44726
-5.31443
-5.17448
-5.02775
-4.87504
-4.71713
-4.55457
-4.38777
-4.21718
-4.04335
-3.8669
-3.68841
-3.50836
-3.32727
-3.14573
-2.96437
-2.78388
-2.60498
-2.42841
-2.25499
-2.0856
-1.92114
-1.76243
-1.61029
-1.46546
-1.32862
-1.20029
-1.08082
-0.970389
-0.868995
-0.776464
-0.692464
-0.616536
-0.548132
-0.486645
-0.431426
-0.381814
-0.337164
-0.296871
-0.260383
-0.227209
-0.196919
-0.16915
-0.143589
-0.119963
-0.0980408
-0.0776329
-0.0585726
-0.0407282
-0.0240035
-0.00830104
0.00645988
0.0203478
0.0334237
0.04573
0.057307
0.0682
0.078443
0.0880661
0.0971025
0.105594
0.113582
0.121111
-5.22405
-5.30936
-5.38812