/*--------------------------------*- C++ -*----------------------------------*\
  =========                 |
  \\      /  F ield         | OpenFOAM: The Open Source CFD Toolbox
   \\    /   O peration     | Website:  https://openfoam.org
    \\  /    A nd           | Version:  13
     \\/     M anipulation  |
\*---------------------------------------------------------------------------*/
FoamFile
{
    format      ascii;
    class       surfaceScalarField;
    location    "282";
    object      phi;
}
// * * * * * * * * * * * * * * * * * * * * * * * * * * * * * * * * * * * * * //

dimensions      [0 3 -1 0 0 0 0];

internalField   nonuniform List<scalar> 
53213
(
0.000404894
-8.73766e-06
0.000412456
-7.56208e-06
0.000418986
-6.52991e-06
0.00042461
-5.62356e-06
0.000429433
-4.82367e-06
0.000433557
-4.12304e-06
-3.48778e-06
0.000437044
0.000404759
-1.73401e-05
0.000412198
-1.50011e-05
0.00041862
-1.29522e-05
0.000424149
-1.11525e-05
0.000428889
-9.56306e-06
0.000432937
-8.17183e-06
-6.9084e-06
0.000436358
0.000404485
-2.56682e-05
0.000411681
-2.21972e-05
0.000417887
-1.91588e-05
0.000423225
-1.64903e-05
0.000427795
-1.41332e-05
0.000431694
-1.20708e-05
-1.01957e-05
0.000434982
0.000404074
-3.35854e-05
0.000410906
-2.9029e-05
0.000416789
-2.50424e-05
0.000421841
-2.15419e-05
0.000426157
-1.84495e-05
0.000429832
-1.57453e-05
-1.32836e-05
0.000432919
0.000403527
-4.09559e-05
0.000409874
-3.53758e-05
0.000415327
-3.0496e-05
0.000419998
-2.62125e-05
0.000423977
-2.24281e-05
0.000427352
-1.9121e-05
-1.61063e-05
0.000430175
0.000402845
-4.76445e-05
0.000408587
-4.11178e-05
0.000413505
-3.54135e-05
0.0004177
-3.0408e-05
0.000421258
-2.59855e-05
0.000424261
-2.21243e-05
-1.85983e-05
0.000426753
0.000402029
-5.35173e-05
0.000407048
-4.61361e-05
0.000411324
-3.96894e-05
0.000414951
-3.4035e-05
0.000418004
-2.90391e-05
0.000420562
-2.4682e-05
-2.06948e-05
0.000422658
0.000401081
-5.84415e-05
0.000405258
-5.03129e-05
0.000408788
-4.32196e-05
0.000411754
-3.70012e-05
0.000414222
-3.1507e-05
0.000416262
-2.67218e-05
-2.23315e-05
0.000417898
0.000400001
-6.2286e-05
0.00040322
-5.35319e-05
0.000405901
-4.59009e-05
0.000408115
-3.92152e-05
0.000409917
-3.33082e-05
0.000411367
-2.81721e-05
-2.34451e-05
0.00041248
0.000398792
-6.4921e-05
0.000400938
-5.56782e-05
0.000402669
-4.76316e-05
0.00040404
-4.05868e-05
0.000405095
-3.4363e-05
0.000405885
-2.89622e-05
-2.39727e-05
0.000406413
0.000397455
-6.6219e-05
0.000398415
-5.66387e-05
0.000399095
-4.83114e-05
0.000399535
-4.10271e-05
0.000399765
-3.45927e-05
0.000399825
-2.90226e-05
-2.38528e-05
0.000399705
0.000395992
-6.60544e-05
0.000395655
-5.63019e-05
0.000395186
-4.78418e-05
0.000394607
-4.04488e-05
0.000393935
-3.39201e-05
0.000393197
-2.82848e-05
-2.30248e-05
0.000392369
0.000394406
-6.43037e-05
0.000392663
-5.45588e-05
0.000390947
-4.61262e-05
0.000389264
-3.8766e-05
0.000387614
-3.22694e-05
0.00038601
-2.66811e-05
-2.14295e-05
0.000384415
0.000392699
-6.08461e-05
0.000389442
-5.13022e-05
0.000386386
-4.30697e-05
0.000383515
-3.58948e-05
0.000380812
-2.95665e-05
0.000378276
-2.41455e-05
-1.90089e-05
0.000375856
0.000390874
-5.55635e-05
0.000385999
-4.64277e-05
0.000381509
-3.85796e-05
0.000377367
-3.17529e-05
0.00037354
-2.57389e-05
0.000370007
-2.06127e-05
-1.57073e-05
0.000366705
0.000388933
-4.83404e-05
0.000382339
-3.98331e-05
0.000376325
-3.25656e-05
0.000370832
-2.62601e-05
0.000365809
-2.07158e-05
0.000361215
-1.60189e-05
-1.1471e-05
0.000356979
0.000386881
-3.90644e-05
0.000378467
-3.14192e-05
0.000370841
-2.49397e-05
0.000363919
-1.93383e-05
0.000357631
-1.44282e-05
0.000351914
-1.03012e-05
-6.24934e-06
0.000346692
0.000384719
-2.76264e-05
0.000374389
-2.10898e-05
0.000365066
-1.56166e-05
0.00035664
-1.09124e-05
0.000349021
-6.80936e-06
0.000342118
-3.39828e-06
5.86771e-09
0.000335863
0.00038245
-1.39202e-05
0.000370111
-8.75069e-06
0.000359007
-4.51283e-06
0.000349005
-9.09426e-07
0.000339991
2.20417e-06
0.000331845
4.7476e-06
7.33819e-06
0.000324513
0.000380079
2.15723e-06
0.000365635
5.69366e-06
0.00035266
8.46202e-06
0.000340995
1.07552e-05
0.000330509
1.26909e-05
0.000321053
1.42029e-05
0.000312647
1.57442e-05
0.000396248
4.0796e-05
0.000359233
3.70157e-05
0.000325652
3.35806e-05
0.000295189
3.04628e-05
0.000267555
2.76344e-05
0.000242486
2.50689e-05
0.000219744
2.27422e-05
0.000199111
2.06322e-05
0.000180392
1.8719e-05
0.000163408
1.69847e-05
0.000147994
1.54131e-05
0.000134006
1.39887e-05
0.000121308
1.2698e-05
0.000109779
1.15289e-05
9.93087e-05
1.04701e-05
8.97973e-05
9.51147e-06
8.11534e-05
8.64384e-06
7.32946e-05
7.85886e-06
6.61456e-05
7.14899e-06
5.96382e-05
6.50739e-06
5.37103e-05
5.92784e-06
4.83056e-05
5.40472e-06
4.33727e-05
4.93296e-06
3.88648e-05
4.5079e-06
3.47394e-05
4.12537e-06
3.09579e-05
3.78152e-06
2.7485e-05
3.47289e-06
2.42887e-05
3.19627e-06
2.134e-05
2.94875e-06
1.86123e-05
2.72761e-06
1.6082e-05
2.53034e-06
1.37274e-05
2.35457e-06
1.15294e-05
2.19801e-06
9.47099e-06
2.05844e-06
7.53757e-06
1.93342e-06
5.71731e-06
1.82026e-06
4.00259e-06
1.71472e-06
2.39461e-06
1.60798e-06
9.49495e-07
1.44512e-06
9.49495e-07
0.000395627
8.1527e-05
0.000358669
7.39735e-05
0.000325141
6.71088e-05
0.000294726
6.08781e-05
0.000267134
5.52257e-05
0.000242105
5.00987e-05
0.000219398
4.54488e-05
0.000198798
4.12322e-05
0.000180108
3.7409e-05
0.00016315
3.39434e-05
0.00014776
3.08023e-05
0.000133793
2.79557e-05
0.000121115
2.53764e-05
0.000109604
2.304e-05
9.915e-05
2.0924e-05
8.96533e-05
1.90082e-05
8.10229e-05
1.72743e-05
7.31763e-05
1.57055e-05
6.60385e-05
1.42868e-05
5.95414e-05
1.30045e-05
5.3623e-05
1.18462e-05
4.82269e-05
1.08007e-05
4.33021e-05
9.85784e-06
3.88017e-05
9.0083e-06
3.46833e-05
8.2437e-06
3.09084e-05
7.55641e-06
2.74419e-05
6.93947e-06
2.42516e-05
6.38651e-06
2.13087e-05
5.89166e-06
1.85868e-05
5.44953e-06
1.60621e-05
5.05508e-06
1.3713e-05
4.70358e-06
1.15205e-05
4.39052e-06
9.46749e-06
4.11147e-06
7.53907e-06
3.86184e-06
5.72276e-06
3.63657e-06
4.00808e-06
3.4294e-06
2.39095e-06
3.22511e-06
9.2713e-07
2.90894e-06
1.87662e-06
0.000394378
0.000122131
0.000357536
0.000110816
0.000324112
0.000100532
0.000293792
9.11987e-05
0.000266286
8.27311e-05
0.000241334
7.50506e-05
0.000218698
6.80848e-05
0.000198162
6.17681e-05
0.00017953
5.60409e-05
0.000162624
5.08493e-05
0.000147283
4.61437e-05
0.000133359
4.18793e-05
0.00012072
3.80155e-05
0.000109245
3.45154e-05
9.88235e-05
3.13455e-05
8.93562e-05
2.84755e-05
8.07526e-05
2.58779e-05
7.29303e-05
2.35277e-05
6.58148e-05
2.14023e-05
5.9338e-05
1.94813e-05
5.34382e-05
1.7746e-05
4.80592e-05
1.61797e-05
4.31501e-05
1.4767e-05
3.86642e-05
1.34942e-05
3.45593e-05
1.23486e-05
3.07969e-05
1.13188e-05
2.7342e-05
1.03943e-05
2.41629e-05
9.56566e-06
2.12305e-05
8.82402e-06
1.85187e-05
8.16132e-06
1.60038e-05
7.57001e-06
1.36644e-05
7.04302e-06
1.14813e-05
6.57362e-06
9.43748e-06
6.15528e-06
7.5179e-06
5.78142e-06
5.70939e-06
5.44507e-06
4.00051e-06
5.13828e-06
2.38616e-06
4.83946e-06
9.23722e-07
4.37138e-06
2.80035e-06
0.000392506
0.000162544
0.000355836
0.000147485
0.000322569
0.0001338
0.00029239
0.000121378
0.000265013
0.000110108
0.000240178
9.98861e-05
0.000217647
9.06153e-05
0.000197207
8.22084e-05
0.000178662
7.4586e-05
0.000161835
6.76765e-05
0.000146565
6.14137e-05
0.000132706
5.57381e-05
0.000120126
5.05957e-05
0.000108704
4.59373e-05
9.83309e-05
4.17184e-05
8.89077e-05
3.78986e-05
8.03442e-05
3.44414e-05
7.25586e-05
3.13134e-05
6.54763e-05
2.84846e-05
5.90299e-05
2.59277e-05
5.31579e-05
2.36181e-05
4.78044e-05
2.15332e-05
4.29186e-05
1.96529e-05
3.84542e-05
1.79586e-05
3.43692e-05
1.64336e-05
3.06253e-05
1.50627e-05
2.71877e-05
1.38319e-05
2.40247e-05
1.27287e-05
2.11075e-05
1.17411e-05
1.84102e-05
1.08586e-05
1.59092e-05
1.00711e-05
1.35831e-05
9.3691e-06
1.14129e-05
8.74379e-06
9.3816e-06
8.18658e-06
7.47401e-06
7.68901e-06
5.6767e-06
7.24238e-06
3.97792e-06
6.83706e-06
2.37277e-06
6.44461e-06
9.18131e-07
5.82601e-06
3.71848e-06
0.000390014
0.000202705
0.000353574
0.000183925
0.000320515
0.000166859
0.000290524
0.000151368
0.000263318
0.000137314
0.000238637
0.000124567
0.000216247
0.000113005
0.000195934
0.000102521
0.000177505
9.30157e-05
0.000160782
8.43989e-05
0.000145607
7.65887e-05
0.000131835
6.95107e-05
0.000119333
6.30976e-05
0.000107982
5.72881e-05
9.76736e-05
5.20267e-05
8.83092e-05
4.72631e-05
7.97991e-05
4.29514e-05
7.20621e-05
3.90504e-05
6.50242e-05
3.55225e-05
5.86182e-05
3.23337e-05
5.27831e-05
2.94531e-05
4.74634e-05
2.68529e-05
4.26087e-05
2.45076e-05
3.81728e-05
2.23944e-05
3.41142e-05
2.04922e-05
3.03947e-05
1.87822e-05
2.69799e-05
1.72468e-05
2.38381e-05
1.58704e-05
2.0941e-05
1.46383e-05
1.82626e-05
1.3537e-05
1.57795e-05
1.25542e-05
1.34706e-05
1.1678e-05
1.1317e-05
1.08974e-05
9.30158e-06
1.0202e-05
7.40925e-06
9.58133e-06
5.62649e-06
9.02515e-06
3.9414e-06
8.52215e-06
2.34941e-06
8.03661e-06
9.07599e-07
7.26782e-06
4.62608e-06
0.000386907
0.000242551
0.000350753
0.00022008
0.000317952
0.000199659
0.000288197
0.000181124
0.000261203
0.000164308
0.000236716
0.000149055
0.0002145
0.00013522
0.000194346
0.000122676
0.00017606
0.000111301
0.000159469
0.000100991
0.000144412
9.16451e-05
0.000130747
8.31757e-05
0.000118343
7.55018e-05
0.000107081
6.85503e-05
9.68531e-05
6.22545e-05
8.75619e-05
5.65543e-05
7.91185e-05
5.13949e-05
7.1442e-05
4.67268e-05
6.44594e-05
4.25052e-05
5.81038e-05
3.86892e-05
5.23148e-05
3.52421e-05
4.70373e-05
3.21304e-05
4.22212e-05
2.93237e-05
3.7821e-05
2.67946e-05
3.37952e-05
2.4518e-05
3.01061e-05
2.24712e-05
2.67194e-05
2.06335e-05
2.36041e-05
1.89858e-05
2.07317e-05
1.75107e-05
1.80766e-05
1.61921e-05
1.56157e-05
1.50151e-05
1.33279e-05
1.39658e-05
1.11945e-05
1.30309e-05
9.19843e-06
1.2198e-05
7.3247e-06
1.14551e-05
5.55978e-06
1.07901e-05
3.89171e-06
1.01902e-05
2.31642e-06
9.61189e-06
8.92082e-07
8.69216e-06
5.51816e-06
0.00038319
0.000282019
0.000347377
0.000255892
0.000314886
0.00023215
0.000285412
0.000210599
0.000258673
0.000191047
0.000234416
0.000173311
0.00021241
0.000157226
0.000192446
0.00014264
0.000174332
0.000129415
0.000157897
0.000117426
0.000142982
0.00010656
0.000129446
9.6712e-05
0.000117158
8.77893e-05
0.000106002
7.97063e-05
9.58708e-05
7.23859e-05
8.66672e-05
6.57578e-05
7.83034e-05
5.97586e-05
7.06996e-05
5.43307e-05
6.3783e-05
4.94217e-05
5.74878e-05
4.49845e-05
5.17539e-05
4.0976e-05
4.65268e-05
3.73575e-05
4.17569e-05
3.40936e-05
3.73992e-05
3.11523e-05
3.34127e-05
2.85046e-05
2.97599e-05
2.6124e-05
2.6407e-05
2.39864e-05
2.33231e-05
2.20696e-05
2.04802e-05
2.03535e-05
1.78529e-05
1.88193e-05
1.54183e-05
1.74497e-05
1.31555e-05
1.62285e-05
1.1046e-05
1.51405e-05
9.07281e-06
1.41712e-05
7.22105e-06
1.33068e-05
5.47726e-06
1.25339e-05
3.82953e-06
1.18379e-05
2.27438e-06
1.1167e-05
8.71696e-07
1.00948e-05
6.38985e-06
0.000378868
0.00032105
0.000343452
0.000291308
0.000311322
0.00026428
0.000282174
0.000239747
0.000255731
0.00021749
0.000231742
0.0001973
0.00020998
0.000178989
0.000190236
0.000162384
0.000172323
0.000147328
0.000156069
0.00013368
0.000141319
0.00012131
0.000127932
0.000110099
0.00011578
9.99409e-05
0.000104748
9.07391e-05
9.47283e-05
8.24052e-05
8.56266e-05
7.48596e-05
7.73555e-05
6.80298e-05
6.98359e-05
6.18502e-05
6.29962e-05
5.62615e-05
5.67711e-05
5.12096e-05
5.11012e-05
4.66459e-05
4.59328e-05
4.25259e-05
4.12167e-05
3.88097e-05
3.69084e-05
3.54606e-05
3.29674e-05
3.24456e-05
2.93568e-05
2.97346e-05
2.6043e-05
2.73001e-05
2.29957e-05
2.5117e-05
2.0187e-05
2.31622e-05
1.75919e-05
2.14144e-05
1.51877e-05
1.98539e-05
1.29539e-05
1.84624e-05
1.08719e-05
1.72224e-05
8.92516e-06
1.61179e-05
7.09878e-06
1.51332e-05
5.37943e-06
1.42532e-05
3.75532e-06
1.34621e-05
2.22367e-06
1.26987e-05
8.46622e-07
1.14719e-05
7.23648e-06
0.000373948
0.000359583
0.000338985
0.000326271
0.000307264
0.000296001
0.000278488
0.000268524
0.000252382
0.000243596
0.000228698
0.000220983
0.000207213
0.000200474
0.00018772
0.000181876
0.000170035
0.000165014
0.000153987
0.000149728
0.000139425
0.000135872
0.000126209
0.000123315
0.000114212
0.000111938
0.000103319
0.000101631
9.34274e-05
9.2297e-05
8.44417e-05
8.38453e-05
7.6276e-05
7.61954e-05
6.88525e-05
6.92737e-05
6.21003e-05
6.30137e-05
5.59549e-05
5.7355e-05
5.0358e-05
5.22428e-05
4.52562e-05
4.76277e-05
4.06013e-05
4.34646e-05
3.63493e-05
3.97126e-05
3.24601e-05
3.63348e-05
2.88974e-05
3.32973e-05
2.56282e-05
3.05694e-05
2.26223e-05
2.81229e-05
1.98525e-05
2.5932e-05
1.72939e-05
2.3973e-05
1.49243e-05
2.22236e-05
1.27233e-05
2.06634e-05
1.06726e-05
1.92731e-05
8.7558e-06
1.80347e-05
6.9582e-06
1.69308e-05
5.26661e-06
1.59448e-05
3.66939e-06
1.50593e-05
2.16457e-06
1.42035e-05
8.17092e-07
1.28194e-05
8.05357e-06
0.000368439
0.000397557
0.000333982
0.000360728
0.00030272
0.000327262
0.000274359
0.000296885
0.00024863
0.000269324
0.000225289
0.000244324
0.000204114
0.00022165
0.000184903
0.000201088
0.000167472
0.000182444
0.000151656
0.000165543
0.000137304
0.000150224
0.000124278
0.000136341
0.000112454
0.000123762
0.000101719
0.000112367
9.19703e-05
0.000102046
8.31144e-05
9.27013e-05
7.50668e-05
8.42429e-05
6.77508e-05
7.65897e-05
6.10965e-05
6.9668e-05
5.50405e-05
6.3411e-05
4.95252e-05
5.77582e-05
4.44981e-05
5.26547e-05
3.99117e-05
4.8051e-05
3.57226e-05
4.39017e-05
3.18915e-05
4.01659e-05
2.83825e-05
3.68063e-05
2.5163e-05
3.37889e-05
2.22035e-05
3.10824e-05
1.94771e-05
2.86584e-05
1.69594e-05
2.64906e-05
1.46284e-05
2.45546e-05
1.2464e-05
2.28278e-05
1.04483e-05
2.12889e-05
8.56497e-06
1.9918e-05
6.79953e-06
1.86963e-05
5.139e-06
1.76053e-05
3.57191e-06
1.66264e-05
2.09727e-06
1.56782e-05
7.83281e-07
1.41334e-05
8.83685e-06
0.000362348
0.000434914
0.000328451
0.000394626
0.000297696
0.000358016
0.000269795
0.000324785
0.000244483
0.000294636
0.00022152
0.000267287
0.000200688
0.000242482
0.000181787
0.000219988
0.000164639
0.000199592
0.000149079
0.000181103
0.000134959
0.000164344
0.000122144
0.000149156
0.000110511
0.000135395
9.99501e-05
0.000122928
9.03591e-05
0.000111637
8.16467e-05
0.000101414
7.37297e-05
9.21599e-05
6.65326e-05
8.37869e-05
5.99865e-05
7.6214e-05
5.40293e-05
6.93682e-05
4.86042e-05
6.31833e-05
4.36597e-05
5.75993e-05
3.9149e-05
5.25617e-05
3.50294e-05
4.80213e-05
3.12623e-05
4.3933e-05
2.78126e-05
4.02561e-05
2.46481e-05
3.69533e-05
2.17399e-05
3.39907e-05
1.90614e-05
3.13369e-05
1.65888e-05
2.89632e-05
1.43004e-05
2.68431e-05
1.21764e-05
2.49517e-05
1.01992e-05
2.32661e-05
8.35285e-06
2.17643e-05
6.62293e-06
2.04262e-05
4.99672e-06
1.92315e-05
3.46298e-06
1.81601e-05
2.02187e-06
1.71193e-05
7.45298e-07
1.54099e-05
9.58215e-06
0.000355686
0.000471596
0.0003224
0.000427912
0.000292201
0.000388216
0.000264803
0.000352183
0.000239947
0.000319492
0.000217397
0.000289837
0.00019694
0.00026294
0.000178379
0.000238548
0.00016154
0.000216432
0.00014626
0.000196383
0.000132394
0.00017821
0.000119809
0.000161741
0.000108386
0.000146818
9.80147e-05
0.000133299
8.85964e-05
0.000121055
8.0041e-05
0.000109969
7.22668e-05
9.99341e-05
6.51996e-05
9.08541e-05
5.8772e-05
8.26416e-05
5.29228e-05
7.52174e-05
4.75964e-05
6.85097e-05
4.27421e-05
6.24535e-05
3.83141e-05
5.69897e-05
3.42706e-05
5.20648e-05
3.05736e-05
4.763e-05
2.71886e-05
4.36411e-05
2.40842e-05
4.00577e-05
2.1232e-05
3.68429e-05
1.86059e-05
3.3963e-05
1.61825e-05
3.13866e-05
1.39405e-05
2.90851e-05
1.18607e-05
2.70316e-05
9.92564e-06
2.52011e-05
8.1196e-06
2.35704e-05
6.42851e-06
2.21173e-05
4.83983e-06
2.08202e-05
3.34262e-06
1.96573e-05
1.9384e-06
1.85235e-05
7.03181e-07
1.66452e-05
1.02853e-05
0.000348464
0.000507547
0.000315841
0.000460535
0.000286243
0.000417814
0.00025939
0.000379036
0.000235028
0.000343854
0.000212927
0.000311939
0.000192876
0.000282991
0.000174684
0.00025674
0.000158179
0.000232937
0.000143202
0.00021136
0.000129612
0.000191801
0.000117277
0.000174075
0.000106081
0.000158014
9.59159e-05
0.000143464
8.66848e-05
0.000130286
7.82997e-05
0.000118354
7.06803e-05
0.000107553
6.37541e-05
9.77803e-05
5.74549e-05
8.89408e-05
5.17227e-05
8.09495e-05
4.65032e-05
7.37292e-05
4.17468e-05
6.72099e-05
3.74085e-05
6.1328e-05
3.34474e-05
5.60259e-05
2.98263e-05
5.12511e-05
2.65114e-05
4.69559e-05
2.34721e-05
4.3097e-05
2.06804e-05
3.96346e-05
1.8111e-05
3.65323e-05
1.57409e-05
3.37567e-05
1.35493e-05
3.12767e-05
1.15173e-05
2.90636e-05
9.62773e-06
2.70907e-05
7.86537e-06
2.53327e-05
6.21633e-06
2.37663e-05
4.6683e-06
2.23682e-05
3.21077e-06
2.11149e-05
1.84684e-06
1.98874e-05
6.56938e-07
1.78351e-05
1.09423e-05
0.000340691
0.000542711
0.000308782
0.000492445
0.000279831
0.000446765
0.000253564
0.000405303
0.000229734
0.000367684
0.000208115
0.000333558
0.000188502
0.000302604
0.000170707
0.000274534
0.000154562
0.000249083
0.000139912
0.00022601
0.000126618
0.000205095
0.000114552
0.000186141
0.0001036
0.000168966
9.36569e-05
0.000153407
8.46274e-05
0.000139316
7.64254e-05
0.000126556
6.89727e-05
0.000115006
6.21981e-05
0.000104555
5.6037e-05
9.51018e-05
5.04309e-05
8.65556e-05
4.53264e-05
7.88337e-05
4.06752e-05
7.18611e-05
3.64334e-05
6.55699e-05
3.25608e-05
5.98984e-05
2.90214e-05
5.47906e-05
2.57819e-05
5.01954e-05
2.28126e-05
4.60664e-05
2.0086e-05
4.23612e-05
1.75775e-05
3.90408e-05
1.52646e-05
3.60696e-05
1.31271e-05
3.34143e-05
1.11463e-05
3.10444e-05
9.30572e-06
2.89312e-05
7.59029e-06
2.70482e-05
5.98643e-06
2.53702e-05
4.48208e-06
2.38726e-05
3.06728e-06
2.25297e-05
1.74704e-06
2.12077e-05
6.06525e-07
1.89756e-05
1.15488e-05
0.000332382
0.000577035
0.000301235
0.000523592
0.000272975
0.000475024
0.000247336
0.000430942
0.000224074
0.000390946
0.000202971
0.000354661
0.000183825
0.00032175
0.000166454
0.000291905
0.000150694
0.000264843
0.000136393
0.00024031
0.000123416
0.000218072
0.000111638
0.000197918
0.000100947
0.000179657
9.12413e-05
0.000163114
8.24273e-05
0.00014813
7.44211e-05
0.000134562
6.71465e-05
0.000122281
6.0534e-05
0.000111167
5.45206e-05
0.000101115
4.90492e-05
9.20271e-05
4.40677e-05
8.38152e-05
3.9529e-05
7.63998e-05
3.53902e-05
6.97087e-05
3.16123e-05
6.36763e-05
2.816e-05
5.82428e-05
2.50011e-05
5.33542e-05
2.21065e-05
4.89611e-05
1.94494e-05
4.50182e-05
1.70059e-05
4.14843e-05
1.47541e-05
3.83213e-05
1.26742e-05
3.54942e-05
1.07482e-05
3.29704e-05
8.95983e-06
3.07196e-05
7.29446e-06
2.87135e-05
5.73887e-06
2.69257e-05
4.28119e-06
2.53303e-05
2.91215e-06
2.38987e-05
1.63865e-06
2.24812e-05
5.51757e-07
2.00625e-05
1.21005e-05
0.000323548
0.000610465
0.000293212
0.000553929
0.000265687
0.000502549
0.000240714
0.000455916
0.000218056
0.000413603
0.000197501
0.000375217
0.000178852
0.000340399
0.000161933
0.000308824
0.000146581
0.000280194
0.000132652
0.000254239
0.000120012
0.000230713
0.00010854
0.00020939
9.81267e-05
0.00019007
8.86728e-05
0.000172567
8.00878e-05
0.000156715
7.22899e-05
0.00014236
6.52046e-05
0.000129366
5.87645e-05
0.000117608
5.2908e-05
0.000106972
4.75797e-05
9.73554e-05
4.27289e-05
8.8666e-05
3.83097e-05
8.0819e-05
3.42805e-05
7.3738e-05
3.06032e-05
6.73535e-05
2.72435e-05
6.16025e-05
2.41701e-05
5.64276e-05
2.13547e-05
5.17765e-05
1.87715e-05
4.76015e-05
1.6397e-05
4.38588e-05
1.421e-05
4.05084e-05
1.21912e-05
3.7513e-05
1.03232e-05
3.48383e-05
8.59026e-06
3.24526e-05
6.97801e-06
3.03258e-05
5.47365e-06
2.84301e-05
4.06558e-06
2.67383e-05
2.74524e-06
2.5219e-05
1.52153e-06
2.37049e-05
4.92531e-07
2.10915e-05
1.25931e-05
0.000314204
0.000642953
0.000284725
0.000583408
0.000257978
0.000529296
0.000233708
0.000480185
0.00021169
0.000435622
0.000191714
0.000395192
0.000173591
0.000358522
0.000157149
0.000325266
0.000142231
0.000295112
0.000128694
0.000267776
0.00011641
0.000242996
0.000105262
0.000220539
9.51425e-05
0.00020019
8.59553e-05
0.000181755
7.76127e-05
0.000165057
7.0035e-05
0.000149938
6.315e-05
0.000136251
5.68921e-05
0.000123866
5.12017e-05
0.000112662
4.60248e-05
0.000102532
4.13122e-05
9.33786e-05
3.70194e-05
8.51118e-05
3.31058e-05
7.76515e-05
2.95349e-05
7.09245e-05
2.6273e-05
6.48643e-05
2.32901e-05
5.94106e-05
2.05584e-05
5.45082e-05
1.80531e-05
5.01068e-05
1.57514e-05
4.61605e-05
1.36328e-05
4.2627e-05
1.16785e-05
3.94672e-05
9.87179e-06
3.66451e-05
8.19724e-06
3.41271e-05
6.64106e-06
3.1882e-05
5.19073e-06
2.98804e-05
3.8351e-06
2.8094e-05
2.56625e-06
2.64879e-05
1.39546e-06
2.48757e-05
4.28754e-07
2.20582e-05
1.30218e-05
0.000304363
0.000674453
0.000275788
0.000611983
0.000249859
0.000555225
0.000226331
0.000503714
0.000204985
0.000456967
0.00018562
0.000414558
0.000168051
0.000376091
0.000152111
0.000341206
0.000137648
0.000309575
0.000124526
0.000280899
0.000112617
0.000254905
0.000101809
0.000231347
9.19993e-05
0.00021
8.3093e-05
0.000190661
7.50056e-05
0.000173145
6.76598e-05
0.000157284
6.09858e-05
0.000142925
5.49198e-05
0.000129932
4.94042e-05
0.000118178
4.43866e-05
0.00010755
3.98195e-05
9.79457e-05
3.56597e-05
8.92716e-05
3.18681e-05
8.14432e-05
2.84089e-05
7.43836e-05
2.52501e-05
6.80232e-05
2.23621e-05
6.22985e-05
1.97185e-05
5.71518e-05
1.72951e-05
5.25302e-05
1.50699e-05
4.83857e-05
1.30231e-05
4.46738e-05
1.11366e-05
4.13537e-05
9.39422e-06
3.83875e-05
7.78101e-06
3.57404e-05
6.28368e-06
3.33793e-05
4.89011e-06
3.1274e-05
3.58956e-06
2.93945e-05
2.37488e-06
2.77026e-05
1.26017e-06
2.59904e-05
3.60279e-07
2.29581e-05
1.33821e-05
0.000294042
0.000704924
0.000266416
0.000639608
0.000241343
0.000580299
0.000218592
0.000526464
0.000197952
0.000477607
0.000179227
0.000433283
0.000162239
0.000393079
0.000146826
0.000356619
0.000132842
0.000323559
0.000120153
0.000293588
0.000108638
0.00026642
9.81876e-05
0.000241797
8.8702e-05
0.000219486
8.00903e-05
0.000199273
7.22706e-05
0.000180965
6.51681e-05
0.000164386
5.87153e-05
0.000149378
5.28506e-05
0.000135796
4.75183e-05
0.00012351
4.26678e-05
0.0001124
3.82532e-05
0.00010236
3.42329e-05
9.3292e-05
3.05689e-05
8.51072e-05
2.7227e-05
7.77255e-05
2.4176e-05
7.10742e-05
2.13876e-05
6.50869e-05
1.88362e-05
5.97032e-05
1.64985e-05
5.4868e-05
1.43534e-05
5.05308e-05
1.23817e-05
4.66455e-05
1.05661e-05
4.31692e-05
8.8909e-06
4.00627e-05
7.3418e-06
3.72894e-05
5.90597e-06
3.48151e-05
4.57172e-06
3.26082e-05
3.32874e-06
3.06375e-05
2.17079e-06
2.88605e-05
1.11532e-06
2.70458e-05
2.86907e-07
2.37865e-05
1.3669e-05
0.000283251
0.00073432
0.000256627
0.000666233
0.000232444
0.000604481
0.000210504
0.000548404
0.000190602
0.00049751
0.000172545
0.000451339
0.000156164
0.000409461
0.000141302
0.000371481
0.000127818
0.000337044
0.000115582
0.000305823
0.000104479
0.000277523
9.44022e-05
0.000251874
8.52556e-05
0.000228632
7.69519e-05
0.000207576
6.94119e-05
0.000188505
6.25636e-05
0.000171234
5.63419e-05
0.0001556
5.06875e-05
0.000141451
4.55468e-05
0.000128651
4.08709e-05
0.000117076
3.66157e-05
0.000106615
3.27409e-05
9.71667e-05
2.92103e-05
8.86378e-05
2.59908e-05
8.09451e-05
2.30524e-05
7.40126e-05
2.03678e-05
6.77714e-05
1.79126e-05
6.21584e-05
1.56643e-05
5.71163e-05
1.36026e-05
5.25925e-05
1.17092e-05
4.85389e-05
9.96744e-06
4.4911e-05
8.36222e-06
4.16679e-05
6.87985e-06
3.87718e-05
5.50803e-06
3.6187e-05
4.23549e-06
3.38808e-05
3.05243e-06
3.18206e-05
1.95364e-06
2.99593e-05
9.60492e-07
2.8039e-05
2.08348e-07
2.45386e-05
1.38774e-05
0.000272029
0.000762592
-0.000300301
0.00024642
0.000691843
0.000223174
0.000627727
0.000202081
0.000569497
0.000182946
0.000516645
0.000165586
0.000468699
0.000149837
0.00042521
0.000135548
0.00038577
0.000122584
0.000350008
0.000110821
0.000317586
0.000100147
0.000288197
9.0459e-05
0.000261561
8.16656e-05
0.000237426
7.36826e-05
0.000215559
6.64339e-05
0.000195753
5.98504e-05
0.000177818
5.38694e-05
0.000161581
4.84341e-05
0.000146886
4.34927e-05
0.000133592
3.89986e-05
0.00012157
3.49092e-05
0.000110705
3.11861e-05
0.00010089
2.77943e-05
9.20296e-05
2.47021e-05
8.40373e-05
2.18808e-05
7.6834e-05
1.93043e-05
7.03479e-05
1.6949e-05
6.45137e-05
1.47935e-05
5.92717e-05
1.28185e-05
5.45675e-05
1.10064e-05
5.0351e-05
9.34124e-06
4.65762e-05
7.80861e-06
4.32006e-05
6.39544e-06
4.0185e-05
5.08996e-06
3.74924e-05
3.88137e-06
3.50894e-05
2.76039e-06
3.29415e-05
1.72302e-06
3.09967e-05
7.95311e-07
2.89667e-05
1.24176e-07
2.52097e-05
1.40015e-05
0.000260359
0.00078968
-0.000287446
0.000235814
0.000716387
0.000213544
0.000649996
0.000193334
0.000589708
0.000174995
0.000534984
0.000158359
0.000485335
0.000143266
0.000440302
0.000129573
0.000399462
0.00011715
0.000362431
0.000105877
0.000328859
9.56478e-05
0.000298427
8.6364e-05
0.000270845
7.79374e-05
0.000245852
7.02874e-05
0.000223209
6.33412e-05
0.000202699
5.70326e-05
0.000184126
5.13015e-05
0.000167312
4.60935e-05
0.000152094
4.13592e-05
0.000138326
3.70538e-05
0.000125876
3.31366e-05
0.000114622
2.95707e-05
0.000104456
2.63229e-05
9.52774e-05
2.33628e-05
8.69974e-05
2.06628e-05
7.95339e-05
1.81983e-05
7.28124e-05
1.59466e-05
6.67654e-05
1.38874e-05
6.1331e-05
1.20021e-05
5.64528e-05
1.02741e-05
5.2079e-05
8.68811e-06
4.81622e-05
7.23051e-06
4.46582e-05
5.88882e-06
4.15267e-05
4.65187e-06
3.87294e-05
3.50929e-06
3.6232e-05
2.45239e-06
3.39984e-05
1.47859e-06
3.19705e-05
6.19546e-07
2.98257e-05
3.35017e-08
2.57958e-05
1.4035e-05
0.000248282
0.000815554
-0.000274156
0.000224833
0.000739837
0.000203571
0.000671258
0.000184275
0.000609004
0.000166763
0.000552495
0.000150876
0.000501223
0.000136462
0.000454715
0.000123386
0.000412538
0.000111523
0.000374295
0.000100758
0.000339624
9.09891e-05
0.000308195
8.21237e-05
0.000279711
7.40767e-05
0.000253899
6.67716e-05
0.000230514
6.01386e-05
0.000209332
5.41146e-05
0.00019015
4.86422e-05
0.000172784
4.36696e-05
0.000157067
3.91495e-05
0.000142846
3.50394e-05
0.000129986
3.13003e-05
0.000118361
2.78972e-05
0.000107859
2.47983e-05
9.83763e-05
2.19748e-05
8.9821e-05
1.94004e-05
8.21083e-05
1.70516e-05
7.51612e-05
1.49069e-05
6.891e-05
1.2947e-05
6.32909e-05
1.11543e-05
5.82455e-05
9.51299e-06
5.37203e-05
8.00868e-06
4.96665e-05
6.62838e-06
4.60385e-05
5.36031e-06
4.27948e-05
4.19387e-06
3.98958e-05
3.1192e-06
3.73066e-05
2.12825e-06
3.49894e-05
1.22006e-06
3.28787e-05
4.32512e-07
3.06133e-05
-6.36067e-08
2.62919e-05
1.39714e-05
0.00023581
0.000840174
-0.00026043
0.000213495
0.000762152
0.000193271
0.000691482
0.000174918
0.000627357
0.000158261
0.000569152
0.000143147
0.000516337
0.000129436
0.000468427
0.000116997
0.000424978
0.000105711
0.000385581
9.54706e-05
0.000349865
8.6178e-05
0.000317488
7.77445e-05
0.000288144
7.00896e-05
0.000261554
6.31405e-05
0.000237463
5.68309e-05
0.000215642
5.11007e-05
0.000195881
4.58955e-05
0.000177989
4.11659e-05
0.000161796
3.6867e-05
0.000147145
3.29584e-05
0.000133895
2.94032e-05
0.000121916
2.61681e-05
0.000111094
2.32228e-05
0.000101322
2.05401e-05
9.25037e-05
1.80952e-05
8.45532e-05
1.58656e-05
7.73908e-05
1.38312e-05
7.09445e-05
1.19735e-05
6.51485e-05
1.02761e-05
5.99429e-05
8.72402e-06
5.52725e-05
7.30362e-06
5.10869e-05
6.00273e-06
4.73393e-05
4.81021e-06
4.39873e-05
3.71611e-06
4.09899e-05
2.71106e-06
3.83117e-05
1.7877e-06
3.59127e-05
9.4726e-07
3.37191e-05
2.33175e-07
3.13274e-05
-1.64576e-07
2.66897e-05
1.38069e-05
0.000222966
0.000863496
-0.000246288
0.000201821
0.000783297
0.000182661
0.000710641
0.000165279
0.000644739
0.000149503
0.000584929
0.000135186
0.000530653
0.000122198
0.000481415
0.000110415
0.000436761
9.97243e-05
0.000396271
9.00241e-05
0.000359565
8.12217e-05
0.00032629
7.32331e-05
0.000296133
6.59822e-05
0.000268805
5.93998e-05
0.000244046
5.34233e-05
0.000221619
4.79958e-05
0.000201308
4.30657e-05
0.00018292
3.85863e-05
0.000166276
3.45152e-05
0.000151216
3.08141e-05
0.000137596
2.74481e-05
0.000125282
2.43859e-05
0.000114156
2.15987e-05
0.000104109
1.90609e-05
9.50416e-05
1.67491e-05
8.6865e-05
1.46421e-05
7.94978e-05
1.27209e-05
7.28656e-05
1.09683e-05
6.69011e-05
9.3687e-06
6.15425e-05
7.90804e-06
5.67331e-05
6.57365e-06
5.24212e-05
5.35406e-06
4.85589e-05
4.23885e-06
4.51025e-05
3.21872e-06
4.20101e-05
2.28486e-06
3.92456e-05
1.43056e-06
3.6767e-05
6.60522e-07
3.44891e-05
1.98714e-08
3.1968e-05
-2.66303e-07
2.69758e-05
1.35406e-05
0.000209767
0.000885483
-0.000231754
0.000189826
0.000803238
0.000171759
0.000728708
0.000155373
0.000661125
0.000140501
0.000599801
0.000127005
0.000544149
0.00011476
0.00049366
0.000103651
0.00044787
9.35717e-05
0.00040635
8.44266e-05
0.00036871
7.6128e-05
0.000334589
6.85967e-05
0.000303664
6.17608e-05
0.000275641
5.55553e-05
0.000250251
4.9921e-05
0.000227253
4.48044e-05
0.000206425
4.0157e-05
0.000187567
3.59347e-05
0.000170498
3.20976e-05
0.000155053
2.86096e-05
0.000141084
2.54381e-05
0.000128454
2.25533e-05
0.000117041
1.99284e-05
0.000106734
1.75393e-05
9.74307e-05
1.5364e-05
8.90403e-05
1.33828e-05
8.1479e-05
1.15777e-05
7.46707e-05
9.93264e-06
6.85462e-05
8.43311e-06
6.3042e-05
7.06601e-06
5.81002e-05
5.8195e-06
5.36678e-05
4.68292e-06
4.96955e-05
3.6466e-06
4.61388e-05
2.70188e-06
4.29548e-05
1.8406e-06
4.01068e-05
1.05667e-06
3.7551e-05
3.58713e-07
3.51871e-05
-2.07288e-07
3.2534e-05
-3.66774e-07
2.71353e-05
1.31738e-05
0.000196234
0.000906101
-0.000216851
0.000177529
0.000821943
0.000160582
0.000745655
0.000145215
0.000676492
0.00013127
0.000613746
0.000118615
0.000556804
0.000107132
0.000505143
9.67142e-05
0.000458288
8.72625e-05
0.000415802
7.86868e-05
0.000377286
7.09047e-05
0.000342371
6.38422e-05
0.000310726
5.74319e-05
0.000282051
5.16128e-05
0.00025607
4.63294e-05
0.000232536
4.15317e-05
0.000211222
3.7174e-05
0.000191925
3.32152e-05
0.000174457
2.9618e-05
0.000158651
2.63484e-05
0.000144353
2.3376e-05
0.000131426
2.0673e-05
0.000119744
1.82144e-05
0.000109192
1.59776e-05
9.96675e-05
1.3942e-05
9.10759e-05
1.20894e-05
8.33317e-05
1.0403e-05
7.63571e-05
8.86786e-06
7.00813e-05
7.47054e-06
6.44393e-05
6.19888e-06
5.93719e-05
5.04194e-06
5.48247e-05
3.98991e-06
5.07475e-05
3.03383e-06
4.70949e-05
2.16576e-06
4.38228e-05
1.37827e-06
4.08943e-05
6.6592e-07
3.82633e-05
3.92127e-08
3.58138e-05
-4.44782e-07
3.3018e-05
-4.65757e-07
2.71563e-05
1.2708e-05
0.000182385
0.000925317
-0.000201601
0.000164947
0.000839382
0.000149146
0.000761456
0.000134822
0.000690816
0.000121825
0.000626743
0.00011003
0.000568599
9.93269e-05
0.000515846
8.96165e-05
0.000467998
8.08066e-05
0.000424612
7.28134e-05
0.000385279
6.556e-05
0.000349624
5.89771e-05
0.000317309
5.30022e-05
0.000288026
4.75784e-05
0.000261494
4.26541e-05
0.000237461
3.81825e-05
0.000215694
3.41212e-05
0.000195986