/*--------------------------------*- C++ -*----------------------------------*\
  =========                 |
  \\      /  F ield         | OpenFOAM: The Open Source CFD Toolbox
   \\    /   O peration     | Website:  https://openfoam.org
    \\  /    A nd           | Version:  13
     \\/     M anipulation  |
\*---------------------------------------------------------------------------*/
FoamFile
{
    format      ascii;
    class       volScalarField;
    location    "282";
    object      ReThetat;
}
// * * * * * * * * * * * * * * * * * * * * * * * * * * * * * * * * * * * * * //

dimensions      [];

internalField   nonuniform List<scalar> 
26820
(
213.9
211.434
209.394
207.696
206.274
205.076
204.062
213.898
211.429
209.387
207.688
206.265
205.066
204.051
213.894
211.419
209.372
207.67
206.246
205.046
204.03
213.888
211.403
209.35
207.644
206.217
205.016
203.998
213.88
211.382
209.321
207.609
206.179
204.977
203.955
213.87
211.356
209.284
207.566
206.132
204.928
203.903
213.858
211.325
209.241
207.514
206.076
204.87
203.842
213.845
211.289
209.19
207.455
206.011
204.803
203.772
213.829
211.249
209.133
207.388
205.939
204.729
203.694
213.811
211.204
209.07
207.314
205.859
204.647
203.61
213.792
211.154
209
207.232
205.772
204.559
203.519
213.771
211.099
208.925
207.145
205.678
204.466
203.424
213.748
211.041
208.844
207.051
205.579
204.367
203.324
213.724
210.978
208.758
206.951
205.474
204.264
203.222
213.698
210.912
208.666
206.846
205.365
204.159
203.119
213.671
210.842
208.57
206.736
205.252
204.051
203.015
213.642
210.768
208.469
206.622
205.136
203.941
202.913
213.612
210.691
208.364
206.504
205.016
203.831
202.815
213.58
210.611
208.255
206.382
204.895
203.719
202.728
213.547
210.527
208.142
206.257
204.771
203.611
202.657
203.158
202.325
201.6
200.967
200.409
199.916
199.475
199.079
198.721
198.397
198.101
197.827
197.572
197.334
197.11
196.898
196.698
196.507
196.325
196.151
195.983
195.822
195.668
195.519
195.377
195.24
195.111
194.996
194.929
194.908
194.904
194.904
194.903
194.902
194.9
194.898
194.897
194.896
194.895
194.895
203.149
202.317
201.593
200.96
200.404
199.91
199.47
199.075
198.718
198.394
198.098
197.824
197.57
197.332
197.108
196.897
196.697
196.506
196.324
196.15
195.982
195.821
195.667
195.518
195.376
195.239
195.121
195.037
194.979
194.942
194.919
194.908
194.902
194.899
194.897
194.896
194.896
194.895
194.895
194.895
203.13
202.3
201.578
200.947
200.392
199.9
199.461
199.067
198.711
198.388
198.092
197.819
197.565
197.328
197.104
196.894
196.694
196.503
196.321
196.147
195.98
195.819
195.665
195.516
195.374
195.238
195.11
195.001
194.936
194.909
194.897
194.891
194.889
194.889
194.89
194.891
194.892
194.894
194.894
194.894
203.101
202.274
201.555
200.927
200.374
199.885
199.448
199.055
198.7
198.378
198.084
197.812
197.559
197.322
197.099
196.889
196.689
196.499
196.318
196.144
195.977
195.816
195.662
195.514
195.372
195.235
195.105
194.984
194.886
194.83
194.826
194.84
194.854
194.866
194.875
194.882
194.887
194.891
194.893
194.894
203.063
202.24
201.525
200.901
200.351
199.864
199.429
199.039
198.685
198.365
198.072
197.801
197.549
197.313
197.092
196.882
196.683
196.494
196.313
196.139
195.973
195.812
195.658
195.51
195.368
195.232
195.102
194.978
194.865
194.776
194.736
194.755
194.793
194.826
194.851
194.868
194.88
194.887
194.891
194.893
203.016
202.199
201.489
200.868
200.322
199.838
199.407
199.019
198.668
198.349
198.058
197.789
197.538
197.303
197.082
196.873
196.675
196.487
196.306
196.133
195.967
195.807
195.653
195.505
195.363
195.227
195.097
194.973
194.855
194.751
194.676
194.661
194.708
194.767
194.815
194.848
194.87
194.883
194.889
194.892
202.961
202.15
201.445
200.83
200.288
199.808
199.38
198.995
198.646
198.33
198.041
197.773
197.524
197.291
197.071
196.863
196.666
196.478
196.298
196.126
195.961
195.801
195.647
195.5
195.358
195.222
195.092
194.967
194.849
194.738
194.645
194.592
194.613
194.689
194.765
194.82
194.856
194.876
194.887
194.89
202.898
202.095
201.396
200.786
200.249
199.773
199.348
198.967
198.621
198.308
198.021
197.755
197.508
197.276
197.058
196.851
196.655
196.468
196.289
196.118
195.953
195.794
195.641
195.493
195.351
195.216
195.085
194.961
194.842
194.73
194.627
194.55
194.532
194.598
194.699
194.783
194.837
194.868
194.884
194.889
202.829
202.034
201.342
200.736
200.204
199.733
199.313
198.935
198.593
198.283
197.998
197.735
197.49
197.26
197.043
196.838
196.643
196.457
196.279
196.108
195.944
195.785
195.633
195.486
195.344
195.208
195.078
194.954
194.835
194.721
194.615
194.525
194.476
194.508
194.619
194.735
194.814
194.858
194.88
194.887
202.755
201.969
201.283
200.683
200.156
199.69
199.274
198.9
198.562
198.254
197.973
197.713
197.469
197.241
197.026
196.823
196.629
196.444
196.268
196.098
195.934
195.776
195.624
195.477
195.336
195.2
195.07
194.946
194.826
194.712
194.604
194.507
194.438
194.435
194.528
194.675
194.784
194.846
194.875
194.884
202.676
201.9
201.221
200.626
200.104
199.643
199.231
198.862
198.527
198.224
197.945
197.688
197.447
197.221
197.008
196.806
196.614
196.431
196.255
196.086
195.923
195.766
195.614
195.468
195.327
195.191
195.061
194.937
194.817
194.703
194.594
194.492
194.41
194.381
194.442
194.606
194.749
194.831
194.87
194.882
202.594
201.829
201.158
200.567
200.049
199.592
199.185
198.82
198.49
198.19
197.915
197.66
197.422
197.199
196.988
196.788
196.597
196.415
196.241
196.073
195.911
195.755
195.603
195.458
195.317
195.182
195.052
194.928
194.808
194.694
194.584
194.479
194.388
194.339
194.372
194.533
194.707
194.814
194.863
194.879
202.511
201.759
201.094
200.508
199.992
199.539
199.137
198.776
198.45
198.154
197.883
197.631
197.396
197.175
196.966
196.768
196.579
196.399
196.226
196.059
195.898
195.742
195.592
195.447
195.306
195.171
195.043
194.919
194.799
194.684
194.573
194.466
194.37
194.305
194.314
194.457
194.661
194.794
194.856
194.875
202.428
201.69
201.034
200.451
199.937
199.485
199.086
198.729
198.407
198.115
197.848
197.6
197.367
197.149
196.943
196.747
196.56
196.381
196.209
196.044
195.884
195.729
195.579
195.434
195.297
195.163
195.034
194.91
194.79
194.674
194.562
194.453
194.353
194.277
194.265
194.384
194.613
194.771
194.848
194.871
202.348
201.626
200.978
200.399
199.885
199.432
199.034
198.68
198.362
198.074
197.811
197.566
197.337
197.122
196.918
196.724
196.539
196.362
196.192
196.027
195.868
195.716
195.571
195.427
195.289
195.155
195.026
194.901
194.78
194.663
194.55
194.441
194.337
194.253
194.224
194.319
194.564
194.747
194.838
194.866
202.272
201.568
200.931
200.356
199.841
199.386
198.985
198.632
198.316
198.032
197.772
197.531
197.305
197.093
196.891
196.7
196.517
196.341
196.172
196.018
195.863
195.71
195.564
195.42
195.282
195.147
195.017
194.892
194.77
194.653
194.539
194.428
194.322
194.231
194.188
194.262
194.518
194.723
194.828
194.861
202.203
201.521
200.896
200.326
199.812
199.353
198.948
198.591
198.275
197.992
197.734
197.496
197.273
197.063
196.865
196.681
196.509
196.337
196.168
196.011
195.858
195.705
195.557
195.413
195.274
195.139
195.008
194.882
194.76
194.642
194.527
194.415
194.307
194.211
194.157
194.214
194.476
194.698
194.817
194.854
202.149
201.489
200.877
200.317
199.805
199.343
198.934
198.573
198.254
197.972
197.717
197.485
197.27
197.062
196.863
196.677
196.505
196.336
196.166
196.006
195.852
195.7
195.551
195.406
195.266
195.131
195
194.873
194.75
194.631
194.516
194.403
194.293
194.192
194.129
194.175
194.437
194.674
194.806
194.848
202.086
201.469
200.884
200.336
199.83
199.371
198.959
198.593
198.269
197.982
197.724
197.489
197.274
197.066
196.867
196.677
196.502
196.333
196.165
196.002
195.847
195.694
195.544
195.399
195.258
195.122
194.991
194.863
194.74
194.621
194.504
194.391
194.279
194.175
194.104
194.145
194.404
194.651
194.794
194.841
202.021
201.438
200.886
200.358
199.861
199.404
198.991
198.62
198.29
197.998
197.736
197.497
197.278
197.07
196.87
196.679
196.5
196.33
196.162
195.998
195.841
195.688
195.538
195.392
195.25
195.114
194.982
194.854
194.73
194.61
194.493
194.378
194.265
194.158
194.081
194.125
194.376
194.63
194.783
194.833
201.965
201.405
200.877
200.37
199.886
199.434
199.021
198.647
198.312
198.014
197.747
197.504
197.282
197.073
196.872
196.68
196.498
196.326
196.159
195.994
195.836
195.682
195.531
195.384
195.242
195.105
194.972
194.844
194.72
194.6
194.482
194.366
194.252
194.142
194.061
194.112
194.353
194.611
194.772
194.825
201.895
201.365
200.857
200.371
199.902
199.458
199.046
198.671
198.332
198.029
197.758
197.512
197.285
197.075
196.874
196.68
196.496
196.322
196.154
195.99
195.83
195.675
195.524
195.377
195.234
195.096
194.963
194.835
194.71
194.589
194.471
194.355
194.239
194.127
194.042
194.103
194.335
194.594
194.761
194.817
201.813
201.315
200.829
200.362
199.91
199.475
199.067
198.692
198.35
198.043
197.768
197.518
197.289
197.076
196.874
196.68
196.494
196.318
196.149
195.985
195.824
195.668
195.516
195.369
195.225
195.087
194.954
194.825
194.7
194.579
194.46
194.343
194.227
194.112
194.025
194.098
194.322
194.58
194.751
194.808
201.721
201.256
200.793
200.345
199.909
199.486
199.083
198.709
198.365
198.056
197.777
197.524
197.291
197.076
196.873
196.678
196.492
196.314
196.144
195.979
195.818
195.661
195.509
195.36
195.216
195.078
194.944
194.815
194.69
194.568
194.45
194.332
194.214
194.098
194.01
194.094
194.312
194.568
194.741
194.799
201.621
201.188
200.75
200.32
199.9
199.489
199.094
198.722
198.378
198.066
197.785
197.528
197.293
197.076
196.871
196.676
196.488
196.309
196.138
195.973
195.811
195.654
195.5
195.351
195.207
195.068
194.934
194.805
194.68
194.558
194.439
194.321
194.202
194.084
193.996
194.091
194.305
194.559
194.732
194.791
201.514
201.113
200.699
200.289
199.885
199.487
199.099
198.731
198.387
198.074
197.791
197.532
197.294
197.074
196.869
196.673
196.484
196.304
196.132
195.966
195.804
195.646
195.492
195.342
195.197
195.058
194.924
194.795
194.669
194.548
194.428
194.31
194.19
194.071
193.984
194.09
194.301
194.552
194.724
194.782
201.403
201.032
200.643
200.252
199.863
199.478
199.1
198.736
198.394
198.08
197.795
197.533
197.293
197.072
196.865
196.668
196.48
196.298
196.125
195.958
195.796
195.638
195.483
195.332
195.187
195.048
194.913
194.784
194.659
194.537
194.418
194.299
194.178
194.058
193.973
194.089
194.3
194.547
194.717
194.773
201.288
200.947
200.582
200.21
199.837
199.464
199.095
198.737
198.397
198.083
197.797
197.534
197.292
197.069
196.86
196.663
196.474
196.292
196.118
195.95
195.788
195.629
195.473
195.322
195.177
195.037
194.903
194.773
194.648
194.527
194.407
194.288
194.166
194.045
193.963
194.09
194.301
194.544
194.711
194.764
201.172
200.858
200.516
200.163
199.806
199.446
199.086
198.734
198.397
198.084
197.797
197.533
197.289
197.064
196.855
196.657
196.467
196.285
196.11
195.942
195.778
195.619
195.463
195.311
195.166
195.026
194.891
194.762
194.637
194.516
194.396
194.276
194.153
194.032
193.954
194.093
194.304
194.543
194.705
194.756
201.054
200.766
200.448
200.113
199.77
199.423
199.073
198.728
198.394
198.082
197.795
197.53
197.285
197.058
196.848
196.649
196.459
196.276
196.101
195.932
195.768
195.608
195.452
195.3
195.154
195.014
194.88
194.751
194.626
194.505
194.385
194.264
194.14
194.018
193.946
194.098
194.31
194.544
194.7
194.748
200.937
200.673
200.377
200.06
199.732
199.396
199.056
198.717
198.388
198.077
197.79
197.525
197.279
197.051
196.84
196.641
196.45
196.267
196.091
195.922
195.758
195.597
195.44
195.288
195.141
195.001
194.867
194.739
194.614
194.493
194.373
194.252
194.127
194.005
193.94
194.105
194.318
194.546
194.695
194.739
200.821
200.58
200.304
200.005
199.691
199.367
199.036
198.704
198.378
198.07
197.784
197.518
197.271
197.043
196.831
196.631
196.44
196.257
196.08
195.91
195.746
195.585
195.428
195.275
195.128
194.988
194.854
194.726
194.602
194.481
194.361
194.238
194.113
193.991
193.936
194.113
194.328
194.55
194.691
194.731
200.706
200.487
200.231
199.947
199.647
199.334
199.013
198.687
198.366
198.06
197.775
197.509
197.262
197.033
196.82
196.62
196.429
196.245
196.068
195.898
195.733
195.572
195.415
195.261
195.114
194.974
194.84
194.713
194.589
194.468
194.347
194.224
194.097
193.976
193.934
194.124
194.34
194.555
194.687
194.723
200.594
200.395
200.157
199.889
199.601
199.299
198.986
198.668
198.351
198.047
197.764
197.498
197.251
197.022
196.808
196.608
196.417
196.233
196.056
195.885
195.72
195.559
195.401
195.246
195.099
194.959
194.826
194.698
194.575
194.454
194.333
194.209
194.08
193.962
193.936
194.137
194.354
194.561
194.683
194.715
200.486
200.304
200.083
199.83
199.554
199.262
198.958
198.645
198.333
198.032
197.75
197.485
197.238
197.008
196.795
196.594
196.403
196.219
196.042
195.871
195.705
195.544
195.385
195.231
195.083
194.943
194.81
194.683
194.56
194.439
194.318
194.193
194.062
193.947
193.949
194.153
194.37
194.568
194.68
194.708
200.381
200.216
200.01
199.77
199.506
199.224
198.927
198.62
198.312
198.014
197.734
197.47
197.223
196.994
196.78
196.579
196.388
196.204
196.026
195.855
195.689
195.528
195.369
195.214
195.066
194.926
194.794
194.667
194.544
194.423
194.301
194.174
194.042
193.94
193.968
194.172
194.387
194.575
194.677
194.7
200.28
200.131
199.938
199.711
199.457
199.183
198.894
198.593
198.289
197.994
197.715
197.453
197.206
196.977
196.764
196.563
196.372
196.188
196.01
195.839
195.672
195.51
195.351
195.196
195.047
194.908
194.776
194.65
194.528
194.406
194.283
194.154
194.022
193.94
193.991
194.194
194.406
194.583
194.674
194.693
200.184
200.048
199.868
199.652
199.407
199.142
198.859
198.564
198.263
197.971
197.695
197.433
197.188
196.959
196.746
196.545
196.354
196.17
195.992
195.82
195.654
195.491
195.332
195.176
195.028
194.889
194.757
194.632
194.509
194.388
194.263
194.131
194.002
193.945
194.016
194.219
194.426
194.591
194.67
194.685
200.093
199.968
199.8
199.593
199.357
199.099
198.822
198.532
198.235
197.945
197.671
197.411
197.167
196.939
196.726
196.525
196.334
196.15
195.973
195.801
195.634
195.471
195.311
195.155
195.007
194.868
194.737
194.612
194.49
194.367
194.241
194.106
193.986
193.952
194.033
194.245
194.446
194.599
194.667
194.678
200.008
199.893
199.734
199.536
199.308
199.056
198.785
198.499
198.205
197.918
197.646
197.388
197.144
196.917
196.704
196.504
196.314
196.13
195.952
195.78
195.613
195.45
195.289
195.133
194.985
194.846
194.716
194.591
194.469
194.345
194.216
194.081
193.978
193.963
194.063
194.274
194.467
194.606
194.663
194.672
213.519
210.488
208.109
206.246
204.791
203.692
202.819
213.523
210.513
208.167
206.347
204.955
203.88
203.027
213.528
210.538
208.224
206.453
205.082
204.01
203.168
213.532
210.561
208.273
206.509
205.142
204.074
203.24
213.534
210.565
208.281
206.522
205.159
204.095
203.267
213.534
210.566
208.283
206.526
205.167
204.106
203.28
213.534
210.567
208.285
206.53
205.172
204.112
203.288
213.534
210.567
208.286
206.531
205.174
204.115
203.291
213.534
210.568
208.286
206.532
205.175
204.115
203.29
213.534
210.567
208.286
206.531
205.174
204.113
203.287
213.534
210.567
208.285
206.53
205.171
204.109
203.282
213.534
210.567
208.285
206.529
205.169
204.105
203.276
213.534
210.567
208.284
206.527
205.165
204.1
203.269
213.534
210.566
208.283
206.525
205.162
204.096
203.263
213.534
210.566
208.282
206.523
205.159
204.091
203.257
213.534
210.566
208.281
206.521
205.157
204.088
203.252
213.534
210.566
208.281
206.52
205.155
204.084
203.247
213.534
210.565
208.28
206.519
205.153
204.082
203.244
213.534
210.565
208.28
206.518
205.151
204.08
203.241
213.534
210.565
208.279
206.518
205.15
204.078
203.239
213.534
210.565
208.279
206.517
205.149
204.077
203.237
213.534
210.565
208.279
206.517
205.149
204.076
203.236
213.534
210.565
208.279
206.516
205.148
204.075
203.235
213.534
210.565
208.279
206.516
205.148
204.075
203.234
213.534
210.565
208.279
206.516
205.148
204.074
203.234
213.534
210.565
208.278
206.516
205.148
204.074
203.233
213.534
210.565
208.278
206.516
205.147
204.074
203.233
213.534
210.565
208.278
206.516
205.147
204.074
203.233
213.534
210.565
208.278
206.516
205.147
204.074
203.232
213.534
210.565
208.278
206.516
205.147
204.073
203.232
213.534
210.565
208.278
206.516
205.147
204.073
203.232
213.534
210.565
208.278
206.516
205.147
204.073
203.232
213.534
210.565
208.278
206.516
205.147
204.073
203.232
213.534
210.565
208.278
206.516
205.147
204.073
203.232
213.534
210.565
208.278
206.516
205.147
204.073
203.232
213.534
210.565
208.278
206.516
205.147
204.073
203.232
213.534
210.565
208.278
206.516
205.147
204.073
203.232
213.534
210.565
208.278
206.516
205.147
204.073
203.232
213.534
210.565
208.278
206.516
205.147
204.073
203.232
213.534
210.565
208.278
206.516
205.147
204.073
203.232
202.423
202.31
202.197
202.076
201.949
201.817
201.682
201.544
201.405
201.266
201.13
200.995
200.864
200.736
200.614
200.496
200.383
200.277
200.177
200.083
202.605
202.468
202.332
202.192
202.048
201.901
201.754
201.606
201.46
201.315
201.174
201.035
200.901
200.772
200.647
200.528
200.414
200.307
200.205
200.111
202.727
202.576
202.426
202.273
202.119
201.964
201.809
201.656
201.505
201.356
201.211
201.07
200.933
200.801
200.674
200.553
200.437
200.328
200.225
200.129
202.79
202.63
202.471
202.312
202.152
201.993
201.835
201.679
201.525
201.375
201.228
201.085
200.947
200.813
200.685
200.562
200.445
200.334
200.229
200.132
202.815
202.652
202.491
202.329
202.168
202.007
201.847
201.69
201.535
201.384
201.236
201.092
200.952
200.817
200.687
200.563
200.445
200.332
200.226
200.127
202.828
202.664
202.501
202.339
202.176
202.014
201.854
201.696
201.54
201.387
201.238
201.092
200.952
200.816
200.685
200.559
200.439
200.325
200.217
200.116
202.835
202.67
202.507
202.343
202.179
202.016
201.855
201.696
201.539
201.385
201.235
201.088
200.946
200.809
200.676
200.549
200.428
200.313
200.203
200.1
202.837
202.672
202.507
202.342
202.178
202.014
201.852
201.691
201.534
201.379
201.227
201.08
200.936
200.798
200.664
200.536
200.413
200.296
200.185
200.081
202.835
202.669
202.504
202.338
202.173
202.008
201.845
201.684
201.525
201.369
201.216
201.068
200.923
200.784
200.649
200.519
200.395
200.277
200.164
200.058
202.831
202.664
202.498
202.331
202.165
202
201.836
201.673
201.514
201.357
201.203
201.054
200.908
200.767
200.632
200.501
200.375
200.256
200.142
200.034
202.825
202.657
202.49
202.323
202.156
201.99
201.825
201.662
201.501
201.343
201.189
201.039
200.892
200.75
200.613
200.481
200.355
200.234
200.119
200.01
202.817
202.649
202.481
202.313
202.146
201.979
201.813
201.649
201.488
201.33
201.175
201.023
200.876
200.733
200.595
200.462
200.335
200.213
200.096
199.986
202.809
202.64
202.472
202.303
202.135
201.968
201.801
201.637
201.475
201.316
201.16
201.008
200.86
200.717
200.578
200.444
200.316
200.193
200.075
199.964
202.802
202.632
202.463
202.294
202.125
201.957
201.79
201.626
201.463
201.304
201.147
200.994
200.846
200.702
200.562
200.428
200.298
200.175
200.056
199.944
202.795
202.625
202.455
202.286
202.116
201.948
201.78
201.615
201.452
201.292
201.135
200.982
200.833
200.688
200.548
200.413
200.283
200.159
200.039
199.927
202.789
202.618
202.448
202.278
202.108
201.939
201.771
201.606
201.442
201.282
201.125
200.971
200.821
200.676
200.536
200.4
200.27
200.145
200.025
199.911
202.784
202.612
202.442
202.271
202.101
201.932
201.764
201.598
201.434
201.273
201.115
200.962
200.812
200.666
200.525
200.389
200.258
200.133
200.013
199.899
202.78
202.608
202.436
202.265
202.095
201.925
201.757
201.59
201.427
201.265
201.108
200.954
200.803
200.658
200.516
200.38
200.249
200.123
200.003
199.888
202.776
202.604
202.432
202.26
202.089
201.919
201.751
201.584
201.42
201.259
201.101
200.947
200.796
200.65
200.509
200.373
200.241
200.115
199.994
199.88
202.773
202.6
202.428
202.256
202.085
201.915
201.746
201.579
201.415
201.253
201.095
200.941
200.791
200.645
200.503
200.367
200.235
200.109
199.988
199.873
202.771
202.597
202.425
202.252
202.081
201.91
201.741
201.574
201.41
201.249
201.09
200.936
200.786
200.64
200.498
200.362
200.23
200.104
199.983
199.868
202.769
202.595
202.422
202.249
202.077
201.906
201.737
201.57
201.406
201.244
201.086
200.932
200.781
200.635
200.494
200.358
200.226
200.1
199.979
199.864
202.768
202.593
202.419
202.246
202.074
201.903
201.733
201.566
201.402
201.24
201.082
200.928
200.778
200.632
200.49
200.354
200.223
200.097
199.976
199.861
202.767
202.591
202.417
202.243
202.07
201.899
201.73
201.562
201.398
201.236
201.078
200.924
200.774
200.628
200.487
200.351
200.22
200.094
199.973
199.858
202.766
202.589
202.414
202.24
202.067
201.896
201.726
201.559
201.394
201.233
201.075
200.921
200.771
200.625
200.485
200.349
200.218
200.092
199.971
199.856
202.765
202.587
202.412
202.237
202.064
201.892
201.722
201.555
201.39
201.229
201.071
200.917
200.768
200.623
200.482
200.346
200.215
200.09
199.969
199.855
202.764
202.586
202.409
202.234
202.06
201.888
201.718
201.551
201.386
201.225
201.068
200.914
200.765
200.62
200.479
200.344
200.213
200.088
199.968
199.854
202.763
202.584
202.407
202.231
202.056
201.884
201.714
201.547
201.382
201.221
201.064
200.91
200.761
200.617
200.477
200.342
200.212
200.087
199.967
199.853
202.762
202.582
202.404
202.227
202.052
201.88
201.709
201.542
201.378
201.217
201.06
200.907
200.758
200.614
200.474
200.339
200.21
200.085
199.966
199.852
202.762
202.58
202.401
202.223
202.048
201.875
201.705
201.537
201.373
201.212
201.055
200.903
200.754
200.61
200.471
200.337
200.208
200.084
199.965
199.852
202.761
202.577
202.397
202.219
202.043
201.87
201.699
201.532
201.368
201.207
201.051
200.898
200.75
200.607
200.468
200.335
200.206
200.082
199.964
199.851
202.76
202.575
202.394
202.215
202.038
201.864
201.693
201.526
201.362
201.202
201.045
200.894
200.746
200.603
200.465
200.332
200.204
200.081
199.963
199.851
202.759
202.572
202.39
202.21
202.032
201.858
201.687
201.519
201.355
201.195
201.04
200.888
200.741
200.599
200.462
200.329
200.202
200.079
199.962
199.85
202.758
202.569
202.385
202.204
202.026
201.851
201.68
201.512
201.348
201.189
201.034
200.883
200.736
200.595
200.458
200.326
200.199
200.078
199.961
199.85
202.757
202.566
202.38
202.198
202.019
201.844
201.672
201.504
201.341
201.181
201.027
200.876
200.731
200.59
200.454
200.323
200.197
200.076
199.96
199.849
202.755
202.563
202.375
202.191
202.011
201.835
201.663
201.496
201.332
201.173
201.019
200.869
200.725
200.585
200.449
200.319
200.194
200.074
199.959
199.849
202.754
202.559
202.369
202.184
202.003
201.826
201.654
201.486
201.323
201.165
201.011
200.862
200.718
200.579
200.444
200.315
200.191
200.072
199.957
199.849
202.753
202.554
202.363
202.176
201.994
201.816
201.644
201.476
201.313
201.155
201.002
200.853
200.71
200.572
200.439
200.311
200.188
200.069
199.956
199.848
202.751
202.55
202.355
202.167
201.983
201.805
201.632
201.464
201.301
201.144
200.992
200.844
200.702
200.565
200.433
200.306
200.184
200.067
199.955
199.848
202.749
202.544
202.348
202.157
201.972
201.793
201.619
201.451
201.289
201.132
200.98
200.834
200.693
200.557
200.426
200.301
200.18
200.064
199.953
199.847
194.665
194.659
194.652
194.645
194.638
194.631
194.624
194.617
194.609
194.601
194.593
194.585
194.576
194.568
194.559
194.55
194.541
194.532
194.523
194.514
194.505
194.496
194.487
194.477
194.468
194.459
194.45
194.441
194.431
194.423
194.414
194.405
194.396
194.387
194.379
194.37
194.362
194.354
194.345
194.337
194.329
194.321
194.313
194.304
194.296
194.288
194.279
194.271
194.261
194.252
194.242
194.231
194.22
194.208
194.195
194.18
194.165
194.148
194.13
194.11
194.089
194.065
194.04
194.013
193.985
193.954
193.921
193.886
193.849
193.81
193.769
193.725
193.679
193.632
193.582
193.53
193.476
193.42
193.363
193.304
194.659
194.655
194.649
194.643
194.637
194.63
194.623
194.616
194.609
194.601
194.593
194.585
194.577
194.568
194.56
194.551
194.542
194.533
194.524
194.515
194.505
194.496
194.487
194.477
194.468
194.459
194.45
194.441
194.432
194.423
194.414
194.405
194.396
194.387
194.379
194.37
194.362
194.354
194.345
194.337
194.329
194.321
194.313
194.304
194.296
194.288
194.279
194.27
194.261
194.252
194.242
194.231
194.22
194.208
194.194
194.18
194.165
194.148
194.13
194.11
194.088
194.065
194.04
194.013
193.984
193.954
193.921
193.886
193.849
193.81
193.768
193.725
193.679
193.631
193.582
193.53
193.476
193.42
193.363
193.304
194.612
194.615
194.617
194.617
194.616
194.613
194.61
194.605
194.6
194.594
194.588
194.581
194.573
194.565
194.557
194.549
194.541
194.532
194.523
194.514
194.505
194.496
194.486
194.477
194.468
194.459
194.45
194.44
194.431
194.422
194.413
194.404
194.396
194.387
194.378
194.37
194.361
194.353
194.344
194.336
194.328
194.32
194.312
194.303
194.295
194.287
194.278
194.269
194.26
194.251
194.241
194.23
194.219
194.206
194.193
194.179
194.163
194.146
194.128
194.108
194.087
194.064
194.039
194.012
193.983
193.952
193.919
193.884
193.847
193.808
193.767
193.723
193.678
193.63
193.58
193.528
193.475
193.419
193.361
193.303
194.487
194.502
194.516
194.527
194.537
194.545
194.55
194.554
194.556
194.557
194.556
194.554
194.551
194.546
194.541
194.535
194.529
194.522
194.514
194.507
194.499
194.49
194.482
194.473
194.464
194.455
194.446
194.437
194.428
194.419
194.411
194.402
194.393
194.384
194.376
194.367
194.359
194.35
194.342
194.334
194.325
194.317
194.309
194.301
194.292
194.284
194.275
194.266
194.257
194.248
194.238
194.227
194.215
194.203
194.19
194.175
194.16
194.143
194.124
194.104
194.083
194.06
194.034
194.008
193.979
193.948
193.915
193.88
193.843
193.804
193.763
193.72
193.674
193.627
193.577
193.525
193.471
193.416
193.359
193.3
194.301
194.323
194.344
194.363
194.381
194.399
194.416
194.431
194.444
194.456
194.466
194.474
194.48
194.484
194.487
194.488
194.487
194.485
194.482
194.479
194.474
194.468
194.462
194.456
194.449
194.441
194.434
194.426
194.418
194.41
194.401
194.393
194.385
194.376
194.368
194.36
194.351
194.343
194.335
194.327
194.319
194.31
194.302
194.294
194.286
194.277
194.269
194.26
194.251
194.241
194.231
194.22
194.208
194.196
194.182
194.168
194.152
194.134
194.116
194.096
194.074
194.051
194.026
193.999
193.97
193.939
193.906
193.872
193.835
193.796
193.755
193.712
193.666
193.619
193.569
193.518
193.465
193.409
193.352
193.294
194.093
194.118
194.143
194.167
194.19
194.212
194.234
194.254
194.273
194.291
194.309
194.326
194.341
194.356
194.369
194.38
194.39
194.397
194.403
194.407
194.41
194.411
194.411
194.41
194.407
194.404
194.4
194.395
194.39
194.384
194.378
194.371
194.364
194.357
194.35
194.343
194.335
194.328
194.32
194.312
194.305
194.297
194.289
194.281
194.273
194.265
194.256
194.247
194.238
194.228
194.218
194.207
194.195
194.182
194.168
194.153
194.136
194.119
194.1
194.08
194.058
194.034
194.009
193.982
193.953
193.922
193.89
193.855
193.818
193.78
193.739
193.696
193.651
193.604
193.555
193.504
193.451
193.397
193.34
193.282
193.975
193.987
194.001
194.017
194.034
194.053
194.071
194.091
194.11
194.129
194.147
194.165
194.182
194.198
194.214
194.23
194.245
194.259
194.273
194.285
194.296
194.305
194.313
194.32
194.325
194.328
194.331
194.332
194.332
194.331
194.329
194.326
194.322
194.318
194.314
194.309
194.303
194.298
194.291
194.285
194.279
194.272
194.265
194.258
194.25
194.242
194.234
194.225
194.216
194.205
194.195
194.183
194.17
194.157
194.142
194.126
194.11
194.091
194.072
194.051
194.029
194.005
193.98
193.952
193.924
193.893
193.861
193.826
193.79
193.752
193.712
193.67
193.626
193.579
193.531
193.481
193.429
193.375
193.32
193.263
193.974
193.972
193.973
193.974
193.978
193.983
193.99
193.999
194.011
194.023
194.035
194.048
194.062
194.077
194.091
194.105
194.118
194.131
194.144
194.156
194.168
194.18
194.191
194.202
194.212
194.221
194.229
194.236
194.242
194.246
194.25
194.252
194.254
194.254
194.253
194.252
194.25
194.247
194.244
194.24
194.235
194.23
194.225
194.218
194.212
194.204
194.196
194.187
194.177
194.167
194.155
194.142
194.129
194.114
194.099
194.082
194.064
194.045
194.025
194.004
193.981
193.957
193.931
193.904
193.875
193.845
193.813
193.78
193.744
193.707
193.667
193.626
193.583
193.538
193.491
193.442
193.392
193.34
193.286
193.23
194.06
194.045
194.032
194.023
194.017
194.013
194.009
194.007
194.006
194.006
194.008
194.011
194.016
194.022
194.029
194.037
194.043
194.051
194.061
194.071
194.081
194.091
194.1
194.108
194.116
194.124
194.131
194.139
194.147
194.153
194.159
194.164
194.168
194.171
194.174
194.176
194.177
194.177
194.176
194.174
194.172
194.168
194.164
194.158
194.152
194.144
194.135
194.125
194.114
194.102
194.089
194.075
194.06
194.044
194.027
194.009
193.99
193.97
193.949
193.927
193.904
193.88
193.854
193.828
193.799
193.77
193.739
193.706
193.672
193.636
193.598
193.558
193.517
193.474
193.429
193.382
193.334
193.284
193.233
193.18
194.194
194.178
194.162
194.145
194.128
194.112
194.096
194.079
194.068
194.06
194.055
194.05
194.046
194.043
194.041
194.04
194.04
194.04
194.042
194.046
194.05
194.055
194.053
194.047
194.054
194.062
194.07
194.077
194.082
194.083
194.084
194.085
194.088
194.092
194.095
194.097
194.097
194.096
194.095
194.092
194.089
194.085
194.079
194.072
194.063
194.052
194.041
194.029
194.015
194
193.985
193.968
193.951
193.933
193.914
193.895
193.875
193.854
193.832
193.81
193.787
193.763
193.737
193.711
193.684
193.656
193.626
193.595
193.563
193.529
193.493
193.456
193.417
193.377
193.335
193.292
193.247
193.201
193.153
193.104
194.326
194.313
194.299
194.285
194.269
194.253
194.236
194.217
194.199
194.18
194.162
194.138
194.114
194.091
194.08
194.074
194.071
194.069
194.066
194.063
194.061
194.059
194.057
194.055
194.054
194.053
194.054
194.057
194.036
193.999
194.002
194.013
194.022
194.028
194.028
194.02
194.012
194.006
194.001
193.996
193.988
193.978
193.964
193.949
193.934
193.917
193.901
193.883
193.865
193.845
193.825
193.806
193.786
193.765
193.745
193.724
193.703
193.681
193.659
193.637
193.615
193.592
193.568
193.543
193.518
193.491
193.464
193.436
193.406
193.375
193.343
193.31
193.275
193.239
193.201
193.162
193.122
193.081
193.039
192.996
194.451
194.44
194.428
194.416
194.403
194.39
194.375
194.36
194.344
194.327
194.309
194.289
194.268
194.24
194.209
194.179
194.151
194.123
194.096