/*--------------------------------*- C++ -*----------------------------------*\
  =========                 |
  \\      /  F ield         | OpenFOAM: The Open Source CFD Toolbox
   \\    /   O peration     | Website:  https://openfoam.org
    \\  /    A nd           | Version:  13
     \\/     M anipulation  |
\*---------------------------------------------------------------------------*/
FoamFile
{
    format      ascii;
    class       volVectorField;
    location    "282";
    object      U;
}
// * * * * * * * * * * * * * * * * * * * * * * * * * * * * * * * * * * * * * //

dimensions      [0 1 -1 0 0 0 0];

internalField   nonuniform List<vector> 
26820
(
(5.39977 0.000107004 3.45085e-21)
(5.39792 0.000313666 -2.33821e-22)
(5.39438 0.00053301 4.97411e-22)
(5.3895 0.000772957 -8.0481e-22)
(5.38359 0.00104456 5.63076e-22)
(5.37684 0.00134019 0)
(5.3693 0.00172007 6.6926e-22)
(5.39977 0.000308988 -4.04938e-21)
(5.39793 0.000926233 4.25436e-21)
(5.3944 0.00158124 0)
(5.38954 0.00229736 0)
(5.38364 0.00311024 0)
(5.37692 0.00399358 0)
(5.36943 0.00513372 -3.01524e-21)
(5.39977 0.000502725 5.34455e-22)
(5.39793 0.00153203 -5.03785e-21)
(5.39442 0.0026212 2.31873e-21)
(5.38957 0.00381077 -7.4165e-23)
(5.38371 0.00516426 -2.66252e-21)
(5.37705 0.00663246 5.60559e-21)
(5.36961 0.0085359 -5.94359e-21)
(5.39977 0.000702083 1.78038e-20)
(5.39794 0.00214741 -9.92831e-21)
(5.39444 0.00367153 7.00892e-21)
(5.38963 0.00533476 -2.43196e-21)
(5.38381 0.00722908 5.21614e-21)
(5.37722 0.00928063 2.8618e-21)
(5.36988 0.0119485 -1.1686e-20)
(5.39977 0.000903233 -1.75645e-20)
(5.39794 0.00276327 9.81115e-21)
(5.39447 0.00472101 -1.99614e-23)
(5.3897 0.00685618 9.74041e-21)
(5.38394 0.00928934 0)
(5.37745 0.0119195 0)
(5.37023 0.0153488 -2.89951e-21)
(5.39976 0.00110529 0)
(5.39795 0.00337951 0)
(5.3945 0.00577016 -1.35864e-20)
(5.38978 0.0083758 -1.44403e-20)
(5.38411 0.011346 -1.54463e-20)
(5.37775 0.0145493 1.09978e-20)
(5.37068 0.0187373 -5.31388e-21)
(5.39976 0.0013083 -1.39989e-20)
(5.39796 0.00399671 -1.90766e-20)
(5.39455 0.00681926 2.69917e-20)
(5.38989 0.00989338 0)
(5.38431 0.0133981 2.03317e-20)
(5.3781 0.0171675 5.18115e-21)
(5.37121 0.0221103 2.26969e-20)
(5.39976 0.00151237 4.9338e-23)
(5.39798 0.00461502 2.10454e-20)
(5.3946 0.00786801 -1.77458e-20)
(5.39002 0.0114082 -4.68508e-21)
(5.38454 0.0154444 -1.01145e-20)
(5.37852 0.0197718 -1.07529e-20)
(5.37184 0.0254647 -3.72229e-23)
(5.39976 0.00171754 1.5635e-20)
(5.398 0.0052344 4.18924e-21)
(5.39466 0.00891597 -4.37294e-21)
(5.39016 0.0129196 0)
(5.38482 0.0174836 0)
(5.379 0.0223594 1.06338e-20)
(5.37256 0.0287971 -1.1321e-20)
(5.39976 0.0019238 0)
(5.39802 0.00585469 1.63802e-20)
(5.39474 0.00996264 -1.7451e-20)
(5.39033 0.0144267 0)
(5.38513 0.0195141 -9.93867e-21)
(5.37955 0.024928 -1.06501e-20)
(5.37338 0.032104 -5.82656e-21)
(5.39975 0.00213112 3.04334e-20)
(5.39804 0.00647566 -1.62943e-20)
(5.39482 0.0110074 3.47057e-20)
(5.39053 0.0159288 0)
(5.38548 0.0215344 1.9835e-20)
(5.38017 0.0274752 0)
(5.37429 0.0353819 0)
(5.39976 0.00233942 -2.03504e-21)
(5.39807 0.00709694 6.07854e-21)
(5.39492 0.0120495 -3.00173e-20)
(5.39074 0.0174249 -9.13187e-21)
(5.38588 0.0235425 -9.91163e-21)
(5.38085 0.0299988 0)
(5.37531 0.0386269 -2.2797e-20)
(5.39976 0.00254861 -3.00237e-20)
(5.39811 0.00771806 4.04132e-21)
(5.39502 0.0130881 -4.15789e-21)
(5.39098 0.0189143 9.32663e-21)
(5.38631 0.0255362 -9.73574e-21)
(5.3816 0.0324969 -1.08467e-20)
(5.37642 0.0418347 3.3232e-20)
(5.39976 0.00275855 3.73323e-21)
(5.39815 0.00833846 -3.96843e-21)
(5.39514 0.0141222 1.71291e-20)
(5.39125 0.0203959 1.82904e-20)
(5.38679 0.0275131 -9.79917e-21)
(5.38243 0.0349683 -1.05588e-20)
(5.37764 0.0449997 -5.68196e-21)
(5.39976 0.00296903 0)
(5.39819 0.00895753 1.58234e-20)
(5.39528 0.0151513 0)
(5.39154 0.0218691 -1.83944e-20)
(5.38732 0.0294709 1.96714e-20)
(5.38332 0.0374126 -2.12567e-20)
(5.37895 0.0481144 3.92013e-20)
(5.39977 0.00317974 0)
(5.39824 0.00957412 -1.58888e-20)
(5.39543 0.0161745 -8.61523e-21)
(5.39186 0.023334 8.93732e-21)
(5.3879 0.0314091 -2.00766e-20)
(5.38428 0.0398331 1.00667e-20)
(5.38036 0.0511713 2.22012e-20)
(5.39978 0.00339047 -1.4695e-20)
(5.39829 0.0101855 0)
(5.39559 0.0171866 0)
(5.39221 0.0247841 -9.22857e-21)
(5.38852 0.0333213 0)
(5.3853 0.042232 1.06771e-20)
(5.38187 0.0541588 -2.22897e-20)
(5.39979 0.00360262 1.85154e-20)
(5.39835 0.0107912 -3.95905e-21)
(5.39577 0.0181799 0)
(5.39258 0.0261986 0)
(5.3892 0.0351741 2.00486e-20)
(5.38639 0.0445771 -2.63352e-20)
(5.38347 0.0570227 2.27773e-20)
(5.3998 0.00382079 0)
(5.39842 0.0114166 8.05011e-21)
(5.39596 0.0192033 -8.55178e-21)
(5.39297 0.0276324 4.75704e-21)
(5.38991 0.0369996 -2.99562e-20)
(5.38752 0.0468493 2.89833e-20)
(5.38518 0.0596762 1.97569e-20)
(5.39982 0.0040427 0)
(5.39848 0.0121429 8.89377e-21)
(5.39615 0.0205288 -9.41252e-21)
(5.39336 0.0296306 5.10996e-21)
(5.39065 0.0396292 0)
(5.38866 0.0501105 -2.58142e-20)
(5.38702 0.0632922 2.68303e-20)
(5.36056 0.00199777 3.1297e-23)
(5.35021 0.00226944 -1.52282e-21)
(5.33853 0.00255016 8.33727e-22)
(5.32542 0.00285477 7.68565e-21)
(5.3108 0.00318918 -5.5937e-22)
(5.29454 0.00355736 -4.91962e-21)
(5.27646 0.00396415 6.69279e-22)
(5.25638 0.00441533 0)
(5.23409 0.00491523 0)
(5.20938 0.00547655 0)
(5.18197 0.00610247 0)
(5.15155 0.00680054 0)
(5.11782 0.00758104 -5.01056e-22)
(5.0804 0.00845664 8.79138e-22)
(5.03888 0.009441 5.4521e-21)
(4.99279 0.0105492 0)
(4.94162 0.0117985 5.68689e-22)
(4.88478 0.0132088 -9.8698e-22)
(4.82164 0.0148027 6.85472e-21)
(4.75148 0.0166063 0)
(4.6735 0.0186494 4.76689e-21)
(4.58682 0.0209661 3.77962e-22)
(4.49048 0.0235949 6.55317e-21)
(4.3834 0.0265797 -4.20491e-21)
(4.26441 0.02997 0)
(4.13223 0.0338213 0)
(3.98548 0.0381953 -3.64542e-21)
(3.82268 0.0431601 0)
(3.64225 0.04879 5.20921e-21)
(3.44255 0.0551648 -5.39912e-21)
(3.22188 0.0623682 -8.93991e-22)
(2.9785 0.070486 4.38205e-21)
(2.71073 0.0796005 6.72167e-22)
(2.41698 0.0897843 4.49347e-23)
(2.09579 0.101078 -1.8118e-21)
(1.74634 0.113455 1.03994e-21)
(1.36716 0.126709 0)
(0.961678 0.139962 0)
(0.530202 0.147192 0)
(0.119231 0.112308 0)
(5.36074 0.00596059 2.80546e-21)
(5.35042 0.0067748 1.29981e-20)
(5.33878 0.00761431 0)
(5.32571 0.00852263 -8.43555e-21)
(5.31114 0.00951931 0)
(5.29493 0.0106168 1.6462e-20)
(5.27691 0.0118292 0)
(5.2569 0.0131737 1.85909e-21)
(5.23467 0.0146669 -1.99008e-21)
(5.21004 0.0163312 -1.24828e-21)
(5.18272 0.0181901 2.93888e-21)
(5.15239 0.0202691 -1.72569e-21)
(5.11876 0.0225972 8.68792e-21)
(5.08147 0.0252103 0)
(5.04008 0.0281484 -6.44811e-21)
(4.99414 0.0314563 -1.56294e-20)
(4.94314 0.0351854 -1.24173e-21)
(4.8865 0.0393948 1.38805e-21)
(4.82358 0.044152 -6.99094e-21)
(4.75368 0.0495344 0)
(4.676 0.0556304 -5.11707e-21)
(4.58968 0.0625408 0)
(4.49375 0.0703805 9.35451e-21)
(4.38715 0.0792793 2.3371e-21)
(4.26873 0.0893839 0)
(4.13721 0.100859 -1.46863e-20)
(3.99124 0.113886 1.3606e-20)
(3.82935 0.128668 0)
(3.64999 0.145424 -7.11111e-21)
(3.45153 0.164389 6.63307e-21)
(3.23231 0.185812 4.04557e-21)
(2.99063 0.209944 -7.16459e-21)
(2.72483 0.237031 2.97213e-21)
(2.43333 0.267291 -3.33156e-21)
(2.11469 0.30086 8.11243e-21)
(1.76794 0.337698 0)
(1.39131 0.377421 0)
(0.98714 0.417762 0)
(0.554126 0.440088 0)
(0.119461 0.331915 9.72097e-21)
(5.361 0.00990229 2.50105e-21)
(5.35075 0.0112573 -9.21624e-21)
(5.33917 0.0126535 3.12773e-20)
(5.32618 0.0141606 -7.9396e-21)
(5.31168 0.0158135 2.24495e-20)
(5.29555 0.0176336 -7.67411e-21)
(5.27763 0.0196441 2.07323e-20)
(5.25771 0.0218733 -1.75438e-21)
(5.2356 0.024352 1.73663e-20)
(5.21109 0.0271129 -2.35951e-21)
(5.18392 0.0301968 2.67222e-21)
(5.15375 0.0336488 1.7518e-21)
(5.1203 0.0375161 8.29005e-21)
(5.0832 0.0418566 -2.22539e-20)
(5.04204 0.0467362 3.1544e-21)
(4.99636 0.0522293 -3.47021e-21)
(4.94565 0.0584214 -2.32356e-21)
(4.88936 0.0654098 2.59481e-21)
(4.82683 0.0733063 -1.29988e-20)
(4.75739 0.0822386 0)
(4.68024 0.0923527 0)
(4.59453 0.103815 -1.14504e-20)
(4.49931 0.116815 -1.75137e-20)
(4.39354 0.131567 4.01481e-21)
(4.27607 0.148311 0)
(4.14568 0.16732 1.20963e-20)
(4.00102 0.188892 -1.10377e-20)
(3.84065 0.213359 6.44136e-21)
(3.66307 0.241082 1.0522e-20)
(3.46669 0.272447 -2.99306e-21)
(3.24987 0.30786 0)
(3.01097 0.347736 0)
(2.74837 0.392478 -1.03871e-20)
(2.46053 0.442452 0)
(2.14599 0.497924 -2.19237e-20)
(1.80375 0.558925 1.30013e-20)
(1.4318 0.625176 -5.0035e-21)
(1.03167 0.693475 -1.50204e-20)
(0.600908 0.731975 3.69137e-21)
(0.1481 0.546338 -8.83207e-21)
(5.36139 0.0138444 1.00943e-20)
(5.35122 0.0157353 -5.60351e-21)
(5.33973 0.0176866 -2.95157e-20)
(5.32684 0.0197913 7.4793e-21)
(5.31245 0.0220989 1.27909e-20)
(5.29644 0.0246397 0)
(5.27864 0.0274463 -2.52839e-20)
(5.25886 0.0305581 3.10904e-21)
(5.23691 0.034019 -1.47293e-20)
(5.21258 0.0378749 0)
(5.1856 0.0421806 2.71903e-21)
(5.15565 0.0470006 -6.38157e-21)
(5.12245 0.0524002 -1.17495e-20)
(5.08564 0.0584596 1.08719e-22)
(5.04481 0.0652703 -2.56308e-20)
(4.9995 0.0729361 1.71438e-20)
(4.94922 0.0815757 -2.18041e-21)
(4.89342 0.0913246 2.43287e-21)
(4.83146 0.102338 1.54416e-20)
(4.76267 0.114793 1.11344e-20)
(4.68628 0.128893 0)
(4.60145 0.144868 1.35722e-20)
(4.50725 0.162982 -6.48715e-21)
(4.40266 0.18353 -1.17173e-20)
(4.28658 0.206848 0)
(4.15779 0.233309 2.92596e-21)
(4.01499 0.26333 -3.23334e-21)
(3.85679 0.297369 4.18606e-21)
(3.68173 0.335923 -1.4264e-20)
(3.48826 0.379526 -2.97026e-21)
(3.27482 0.428738 3.28609e-21)
(3.0398 0.484132 1.59867e-20)
(2.78165 0.546273 9.60983e-21)
(2.49887 0.615679 0)
(2.19003 0.692767 1.3355e-20)
(1.8541 0.777703 -1.17975e-20)
(1.48903 0.870396 9.06781e-21)
(1.09562 0.966782 -1.03844e-20)
(0.668813 1.02176 1.29557e-20)
(0.196309 0.758411 -2.32644e-20)
(5.36189 0.0177654 0)
(5.35185 0.0201869 0)
(5.34047 0.0226898 0)
(5.3277 0.0253875 0)
(5.31345 0.0283439 -6.44749e-20)
(5.29759 0.0315993 0)
(5.27995 0.0351952 0)
(5.26036 0.039182 -3.14837e-21)
(5.23861 0.0436161 3.38414e-21)
(5.2145 0.0485565 -1.20318e-20)
(5.18778 0.0540718 -4.79423e-21)
(5.15812 0.0602453 0)
(5.12525 0.0671603 -2.52779e-20)
(5.08881 0.0749189 1.34856e-20)
(5.0484 0.083638 4.28708e-20)
(5.00358 0.0934499 -3.38878e-21)
(4.95386 0.104506 3.50436e-20)
(4.8987 0.116978 0)
(4.83748 0.131064 0)
(4.76955 0.14699 -1.38915e-20)
(4.69415 0.165014 -4.35914e-21)
(4.61046 0.18543 -4.17145e-22)
(4.51759 0.20857 5.81218e-21)
(4.41455 0.234812 1.45854e-20)
(4.30027 0.264581 -4.54767e-21)
(4.17356 0.298351 5.0234e-21)
(4.03319 0.33665 0)
(3.87781 0.380057 1.47707e-20)
(3.70601 0.429204 0)
(3.51631 0.484764 2.0905e-20)
(3.30721 0.547449 0)
(3.07719 0.617985 -1.11041e-20)
(2.82474 0.697092 -2.14913e-20)
(2.54844 0.785447 5.27332e-21)
(2.2469 0.883629 -5.85652e-21)
(1.9191 0.991963 -1.37804e-20)
(1.56302 1.11054 0)
(1.17879 1.23437 -8.9795e-21)
(0.757089 1.30548 1.11633e-20)
(0.260835 0.965885 1.42691e-20)
(5.36252 0.0216613 -4.45841e-20)
(5.35263 0.0246047 -5.25497e-21)
(5.34139 0.0276528 5.70196e-21)
(5.32878 0.0309367 -6.88202e-21)
(5.3147 0.0345343 3.69047e-21)
(5.29902 0.0384957 3.91935e-20)
(5.28158 0.0428716 0)
(5.26221 0.0477227 0)
(5.2407 0.0531179 0)
(5.21688 0.0591279 1.55846e-20)
(5.19047 0.0658361 1.87346e-20)
(5.16116 0.0733441 0)
(5.12869 0.0817528 3.13633e-20)
(5.09271 0.0911853 -4.04244e-21)
(5.05283 0.101783 -2.03483e-20)
(5.00861 0.113706 -2.43663e-20)
(4.95957 0.127137 -5.91827e-20)
(4.9052 0.142285 0)
(4.8449 0.159387 -2.14266e-20)
(4.77801 0.178718 -2.58172e-20)
(4.70383 0.200586 -4.08967e-21)
(4.62156 0.225347 9.44969e-21)
(4.53033 0.253401 -1.13525e-20)
(4.42919 0.285204 6.53293e-21)
(4.31711 0.321265 0)
(4.19298 0.362156 -1.92721e-20)
(4.05558 0.408509 0)
(3.90365 0.461022 -1.75625e-20)
(3.73584 0.520451 1.59728e-20)
(3.55075 0.587605 -1.49899e-20)
(3.34695 0.663338 2.28019e-20)
(3.12301 0.748524 1.98244e-20)
(2.8775 0.844035 3.96998e-20)
(2.60907 0.950702 0)
(2.31639 1.06927 -5.56783e-21)
(1.99851 1.20021 6.58618e-21)
(1.65345 1.34381 -1.42401e-20)
(1.28073 1.49405 1.70277e-20)
(0.865205 1.58045 -1.01837e-20)
(0.340364 1.16626 -6.26831e-21)
(5.36328 0.0255276 2.54111e-20)
(5.35356 0.0289834 9.49333e-21)
(5.34249 0.0325693 0)
(5.33006 0.0364313 -6.53571e-21)
(5.31619 0.040661 3.62342e-20)
(5.30072 0.0453184 -3.77536e-20)
(5.28352 0.0504632 4.65064e-21)
(5.26441 0.0561662 0)
(5.2432 0.0625082 -3.27995e-21)
(5.2197 0.0695713 3.58336e-21)
(5.19366 0.0774534 -1.7974e-20)
(5.16477 0.0862741 1.59182e-20)
(5.13278 0.0961508 3.24224e-20)
(5.09735 0.107227 0)
(5.05808 0.119669 3.81102e-20)
(5.01457 0.133663 2.32849e-20)
(4.96635 0.149421 2.44643e-20)
(4.91291 0.167187 3.31361e-20)
(4.85369 0.187239 4.0192e-20)
(4.78805 0.209893 3.05082e-20)
(4.71532 0.235512 -3.84229e-21)
(4.63472 0.264506 -3.53925e-20)
(4.54542 0.297342 -4.31805e-22)
(4.44653 0.334547 3.12818e-20)
(4.33706 0.376713 -3.00914e-20)
(4.21595 0.424502 1.83201e-20)
(4.08206 0.478648 -5.63851e-21)
(3.93419 0.539956 6.21252e-21)
(3.77108 0.609303 -1.5437e-20)
(3.59141 0.687626 0)
(3.39385 0.77591 -3.70472e-20)
(3.17704 0.875173 -3.14354e-20)
(2.93967 0.986429 -7.31487e-21)
(2.68047 1.11066 -1.26868e-20)
(2.39819 1.24876 -2.15397e-22)
(2.09195 1.40137 1.71472e-20)
(1.75983 1.56895 1.32513e-20)
(1.40083 1.74434 0)
(0.99249 1.84488 1.70645e-20)
(0.433932 1.35758 5.57742e-21)
(5.36416 0.0293587 -7.2751e-20)
(5.35465 0.0333163 9.0285e-21)
(5.34377 0.0374314 5.42603e-21)
(5.33156 0.041862 3.31026e-22)
(5.31791 0.0467132 -6.74125e-21)
(5.3027 0.0520551 0)
(5.28577 0.057956 0)
(5.26696 0.0644964 -4.171e-20)
(5.24609 0.0717685 -3.02505e-20)
(5.22297 0.0798658 -2.12105e-20)
(5.19735 0.0888998 0)
(5.16895 0.0990075 -2.07229e-20)
(5.13751 0.110323 -4.33228e-20)
(5.1027 0.123008 -7.26979e-21)
(5.06415 0.137254 -3.65567e-20)
(5.02145 0.15327 2.17568e-20)
(4.97417 0.1713 0)
(4.92181 0.191618 -3.20583e-20)
(4.86384 0.214541 -2.43027e-20)
(4.79964 0.240427 5.55142e-21)
(4.72856 0.269686 0)
(4.64988 0.302784 3.78264e-20)
(4.56281 0.340248 4.00343e-22)
(4.4665 0.382673 -5.33183e-20)
(4.36002 0.430728 6.18293e-22)
(4.24237 0.485159 -3.34968e-20)
(4.11251 0.546795 0)
(3.96929 0.616543 0)
(3.81155 0.69539 -2.79241e-20)
(3.63808 0.784391 4.33203e-21)
(3.44763 0.88466 1.51793e-20)
(3.23897 0.997342 0)
(3.01089 1.12359 2.62961e-20)
(2.76222 1.26453 7.25831e-21)
(2.49181 1.4212 1.33254e-20)
(2.19888 1.59438 -1.98076e-20)
(1.88156 1.78473 -1.15897e-20)
(1.53835 1.98382 3.48844e-22)
(1.13805 2.09705 -2.35198e-20)
(0.540531 1.53808 9.87481e-21)
(5.36517 0.0331491 5.17315e-22)
(5.35589 0.0375965 0)
(5.34523 0.0422308 -4.00217e-20)
(5.33326 0.047219 0)
(5.31988 0.0526798 5.25128e-20)
(5.30494 0.0586931 0)
(5.28832 0.0653355 0)
(5.26986 0.0726965 4.02314e-20)
(5.24936 0.0808798 7.49318e-20)
(5.22667 0.0899892 2.05458e-20)
(5.20154 0.10015 0)
(5.17369 0.111515 3.89757e-20)
(5.14286 0.124235 2.38425e-20)
(5.10876 0.13849 0)
(5.07101 0.154493 0)
(5.02924 0.172478 -2.0919e-20)
(4.98302 0.192715 -2.4788e-20)
(4.93187 0.215511 3.92521e-21)
(4.8753 0.241216 -4.36062e-21)
(4.81271 0.270229 0)
(4.7435 0.303005 -2.57838e-20)
(4.66698 0.34006 0)
(4.58241 0.381977 3.69236e-20)
(4.48899 0.429415 2.25669e-20)
(4.38587 0.483115 1.99942e-20)
(4.27212 0.5439 1.26039e-20)
(4.14675 0.612684 -4.54171e-21)
(4.00875 0.69047 0)
(3.85702 0.778345 8.33574e-22)
(3.69048 0.877475 3.03775e-20)
(3.50799 0.989087 2.24516e-20)
(3.30843 1.11445 -5.13831e-21)
(3.09072 1.25484 -2.50077e-20)
(2.85381 1.41152 -6.41484e-22)
(2.59666 1.58567 0)
(2.31862 1.77818 1.88615e-20)
(2.01784 1.98991 0)
(1.69232 2.21103 -5.02787e-21)
(1.30076 2.33528 6.731e-21)
(0.659003 1.70609 0)
(5.36631 0.036893 6.63241e-20)
(5.35729 0.041817 0)
(5.34687 0.0469593 2.87023e-20)
(5.33517 0.0524929 5.4464e-20)
(5.32208 0.05855 -5.41471e-22)
(5.30746 0.0652201 0)
(5.29118 0.0725875 -3.30564e-20)
(5.2731 0.0807504 0)
(5.25302 0.0898235 -3.86048e-20)
(5.23081 0.0999206 4.38969e-22)
(5.20621 0.11118 -7.50669e-21)
(5.17896 0.12377 -5.41044e-21)
(5.14883 0.137856 5.45206e-21)
(5.1155 0.153637 0)
(5.07865 0.171345 4.26112e-21)
(5.0379 0.191238 3.42593e-20)
(4.99285 0.213612 4.73385e-20)
(4.94306 0.238802 -2.81678e-20)
(4.88803 0.26719 3.38029e-20)
(4.82723 0.299214 0)
(4.76008 0.335369 2.48128e-20)
(4.68595 0.376218 0)
(4.60414 0.422395 -3.55101e-20)
(4.51392 0.474619 2.06368e-20)
(4.41449 0.533692 6.48671e-21)
(4.30502 0.60051 2.28645e-20)
(4.18461 0.676065 0)
(4.05233 0.761445 5.3718e-21)
(3.90722 0.857828 1.88887e-20)
(3.74828 0.966477 -1.09902e-21)
(3.57453 1.08873 -1.70127e-20)
(3.38496 1.22595 -4.98054e-21)
(3.17863 1.37955 5.46241e-21)
(2.95463 1.55089 1.18193e-20)
(2.71204 1.74129 -6.76269e-21)
(2.45035 1.95175 -8.12798e-21)
(2.16772 2.18333 -4.59984e-21)
(1.86165 2.4246 2.07199e-20)
(1.47929 2.55794 -5.86495e-21)
(0.788022 1.86007 0)
(5.36758 0.0405846 -6.31617e-20)
(5.35884 0.0459709 7.85625e-21)
(5.34869 0.051609 -3.65139e-20)
(5.33728 0.0576746 -8.4094e-20)
(5.32451 0.0643134 -4.84989e-20)
(5.31023 0.0716242 -5.50085e-20)
(5.29433 0.0796984 8.63707e-21)
(5.27666 0.0886425 -8.89331e-21)
(5.25706 0.098582 0)
(5.23536 0.10964 0)
(5.21136 0.121966 7.68473e-21)
(5.18477 0.135746 -4.92013e-20)
(5.15539 0.151156 4.77495e-20)
(5.12292 0.168414 0)
(5.08705 0.187771 4.04577e-21)
(5.04742 0.209507 -3.7355e-20)
(5.00365 0.233939 -2.80747e-20)
(4.95533 0.261431 3.42247e-20)
(4.90199 0.292396 -7.6544e-20)
(4.84314 0.327304 4.6656e-21)
(4.77824 0.366687 -6.02935e-21)
(4.7067 0.411152 6.66743e-21)
(4.62789 0.461379 4.2923e-21)
(4.54114 0.518139 -6.32651e-20)
(4.44574 0.582291 -2.29274e-20)
(4.34091 0.654795 0)
(4.22588 0.736711 3.20452e-20)
(4.09981 0.829201 0)
(3.96185 0.933525 -1.62578e-20)
(3.81115 1.05103 -3.33251e-20)
(3.64684 1.18315 0)
(3.46807 1.33135 -4.54762e-21)
(3.27404 1.49713 4.98118e-21)
(3.064 1.68196 -7.28139e-21)
(2.83715 1.88729 1.33608e-20)
(2.59316 2.11418 2.13964e-20)
(2.33015 2.3639 0)
(2.04508 2.62326 4.38573e-21)
(1.67214 2.76357 -5.07038e-21)
(0.92609 1.99863 0)
(5.36897 0.0442178 6.74038e-20)
(5.36054 0.0500513 -7.89336e-21)
(5.35068 0.056172 -2.59365e-20)
(5.33959 0.0627551 4.05195e-20)
(5.32716 0.0699598 -3.99147e-20)
(5.31326 0.0778937 9.95502e-20)
(5.29777 0.086655 3.85459e-20)
(5.28056 0.0963579 -8.5172e-21)
(5.26145 0.107138 4.52334e-20)
(5.24033 0.119127 -5.70429e-21)
(5.21696 0.132487 0)
(5.19109 0.147417 0)
(5.16253 0.164106 -7.64754e-20)
(5.13099 0.18279 -1.23412e-20)
(5.09617 0.203734 7.13979e-21)
(5.05775 0.22724 4.61495e-21)
(5.01537 0.253647 -4.71638e-20)
(4.96864 0.283343 2.51702e-20)
(4.91712 0.316768 6.10012e-20)
(4.86038 0.354422 0)
(4.79789 0.396873 -1.58034e-20)
(4.72915 0.444762 1.93192e-20)
(4.65357 0.498813 0)
(4.57055 0.559841 3.73462e-20)
(4.47945 0.628756 7.58534e-22)
(4.37961 0.706572 -2.52719e-20)
(4.27033 0.794409 -3.09467e-20)
(4.1509 0.893493 0)
(4.02059 1.00515 9.39873e-22)
(3.87869 1.13081 0)
(3.72446 1.27197 2.73632e-20)
(3.55723 1.43019 -1.57073e-20)
(3.37633 1.60705 4.7077e-21)
(3.18118 1.80412 -6.55197e-21)
(2.97113 2.02294 0)
(2.74604 2.26463 -1.94695e-20)
(2.50397 2.53067 -1.4132e-20)
(2.24123 2.80586 2.22608e-20)
(1.87762 2.95084 -4.15589e-21)
(1.07155 2.12054 5.63053e-21)
(5.3705 0.0477865 0)
(5.36239 0.0540511 -7.56701e-21)
(5.35285 0.0606404 1.77888e-20)
(5.3421 0.0677256 -9.42881e-21)
(5.33004 0.0754794 4.45715e-20)
(5.31654 0.0840175 -5.77332e-20)
(5.30149 0.0934447 3.60632e-20)
(5.28476 0.103882 0)
(5.2662 0.115476 -3.39562e-20)
(5.24569 0.128364 -5.00423e-20)
(5.223 0.142721 -1.97429e-20)
(5.19791 0.15876 -7.86459e-21)
(5.17022 0.17668 7.28925e-20)
(5.13968 0.196731 5.6626e-21)
(5.106 0.219197 -7.30104e-21)
(5.06887 0.244397 8.1361e-21)
(5.02797 0.272689 3.55524e-20)
(4.98294 0.304483 -1.85989e-20)
(4.93337 0.340244 -2.92215e-20)
(4.87887 0.380499 4.48102e-21)
(4.81897 0.425845 1.58718e-20)
(4.75319 0.476955 -2.4816e-20)
(4.68105 0.53459 2.85206e-20)
(4.60199 0.599602 -2.93084e-20)
(4.51547 0.672946 1.05262e-20)
(4.42091 0.755679 5.72619e-22)
(4.31772 0.848972 6.83815e-21)
(4.20532 0.954103 2.79664e-20)
(4.08311 1.07246 2.93455e-20)
(3.95049 1.20552 1.62568e-20)
(3.80692 1.35485 -5.13717e-20)
(3.65186 1.52208 9.30004e-22)
(3.48482 1.70886 0)
(3.30538 1.91682 -2.41944e-20)
(3.11304 2.14762 2.51163e-20)
(2.90791 2.40236 1.76246e-20)
(2.68789 2.68278 5.44625e-21)
(2.4486 2.97139 -1.38764e-20)
(2.09392 3.11857 0)
(1.22258 2.22474 -8.35484e-21)
(5.37215 0.0512843 1.27005e-20)
(5.3644 0.0579634 -7.00357e-20)
(5.35518 0.0650062 6.51891e-20)
(5.3448 0.0725775 0)
(5.33314 0.0808625 0)
(5.32006 0.0899848 -4.83315e-20)
(5.30548 0.100055 -2.82232e-20)
(5.28927 0.111201 0)
(5.27129 0.123578 0)
(5.25143 0.137333 4.34816e-20)
(5.22947 0.152648 1.9383e-20)
(5.2052 0.16975 7.51076e-21)
(5.17845 0.18885 -4.24015e-20)
(5.14897 0.210209 5.39309e-21)
(5.11649 0.234128 2.6347e-20)
(5.08074 0.26094 -3.15186e-20)
(5.04142 0.291022 0)
(4.99818 0.324803 -2.24905e-20)
(4.95068 0.36277 0)
(4.89854 0.405471 0)
(4.84137 0.45353 5.02339e-21)
(4.77874 0.507648 -5.55128e-21)
(4.71021 0.568614 -2.7711e-20)
(4.63532 0.637313 -2.89877e-21)
(4.55361 0.714734 2.3175e-20)
(4.4646 0.80197 2.28138e-20)
(4.36781 0.900231 3.22652e-20)
(4.26277 1.01084 -3.86871e-20)
(4.14902 1.13521 -4.55124e-21)
(4.02614 1.27489 -3.06063e-20)
(3.8937 1.43148 -4.21052e-21)
(3.75136 1.60666 -1.18908e-20)
(3.59878 1.80215 1.06125e-20)
(3.43575 2.0196 -1.18454e-20)
(3.2619 2.26078 -3.67165e-20)
(3.0776 2.52676 -9.3912e-21)
(2.88056 2.81951 -1.59178e-20)
(2.66553 3.11892 -1.05304e-20)
(2.31906 3.26574 -8.80682e-21)
(1.37725 2.31032 1.19124e-20)
(5.37394 0.0547043 -5.90616e-20)
(5.36655 0.0617811 5.47625e-20)
(5.35769 0.0692618 0)
(5.3477 0.0773026 3.53026e-20)
(5.33645 0.0861002 3.51776e-20)
(5.32382 0.0957853 5.28782e-20)
(5.30973 0.106475 -5.32097e-20)
(5.29408 0.118302 0)
(5.27671 0.131431 0)
(5.25753 0.146017 -4.07919e-20)
(5.23635 0.162249 0)
(5.21296 0.180368 2.92364e-20)
(5.18719 0.200592 4.59769e-21)
(5.15883 0.223197 -5.13658e-21)
(5.12763 0.248495 -3.22848e-20)
(5.09333 0.276834 6.79498e-20)
(5.05565 0.308606 4.70362e-21)
(5.01431 0.344258 1.66958e-20)
(4.96898 0.384293 0)
(4.91933 0.42928 0)
(4.86501 0.479863 -4.71999e-21)
(4.80567 0.536765 -1.5906e-20)
(4.74092 0.6008 0)
(4.67038 0.672876 3.07025e-20)
(4.59369 0.754008 -5.26115e-20)
(4.51045 0.845318 0)
(4.42031 0.948041 -2.48173e-20)
(4.32293 1.06353 0)
(4.21797 1.19323 0)
(4.10517 1.33871 1.92415e-20)
(3.98426 1.50162 2.7385e-20)
(3.85508 1.68366 -4.00679e-21)
(3.71747 1.88658 -1.73349e-20)
(3.5714 2.11207 1.91485e-20)
(3.41668 2.36198 1.6904e-20)
(3.25392 2.63731 9.06963e-21)
(3.08063 2.94021 9.51229e-21)
(2.89031 3.24774 9.7814e-21)
(2.55084 3.39155 5.96216e-21)
(1.53343 2.37652 5.80081e-21)
(5.37586 0.0580405 4.62035e-20)
(5.36885 0.0654966 0)
(5.36036 0.0733994 0)
(5.35078 0.0818933 -3.44998e-20)
(5.33997 0.0911837 -7.83368e-20)
(5.32781 0.101409 0)
(5.31424 0.112692 1.01472e-21)
(5.29917 0.125171 7.64338e-21)
(5.28245 0.139021 -8.27637e-21)
(5.26399 0.154399 8.98378e-22)
(5.24363 0.171506 4.66329e-20)
(5.22115 0.190592 -2.85933e-20)
(5.19642 0.211884 0)
(5.16923 0.235668 5.23653e-21)
(5.13936 0.262269 -5.83955e-21)
(5.10658 0.292046 -5.75059e-20)
(5.07064 0.325405 0)
(5.03127 0.362806 4.01256e-20)
(4.9882 0.404767 -2.38357e-20)
(4.94115 0.451873 2.07924e-20)
(4.8898 0.504784 4.61726e-20)
(4.83387 0.56424 1.57188e-20)
(4.77304 0.631072 2.32892e-20)
(4.70702 0.706207 0)
(4.63552 0.790674 3.36821e-20)
(4.55825 0.885615 1.86699e-20)
(4.47497 0.992281 2.74037e-20)
(4.38547 1.11204 -1.29186e-20)
(4.28956 1.24636 -7.07282e-21)
(4.18711 1.39681 -2.06088e-20)
(4.07806 1.56507 -1.85143e-20)
(3.96238 1.75283 4.81629e-20)
(3.84011 1.96189 1.7205e-20)
(3.71143 2.19394 -1.86607e-20)
(3.5763 2.45086 3.38567e-21)
(3.4356 2.7336 -3.67559e-21)
(3.2866 3.0444 3.44357e-21)
(3.12127 3.35734 -3.76661e-21)
(2.78703 3.49532 -7.82358e-21)
(1.68892 2.42276 1.2438e-21)
(5.37792 0.0612883 -3.2484e-20)
(5.3713 0.0691015 -1.23368e-20)
(5.36319 0.0774114 0)
(5.35404 0.0863419 0)
(5.34368 0.0961048 7.23351e-22)
(5.33202 0.106847 -4.27173e-20)
(5.319 0.118697 7.42461e-21)
(5.30453 0.131798 2.11675e-20)
(5.28849 0.146333 -2.80244e-20)
(5.27079 0.162465 3.36625e-20)
(5.25127 0.180401 -1.1574e-21)
(5.22975 0.200403 0)
(5.2061 0.222704 0)
(5.18014 0.247599 0)
(5.15166 0.275424 0)
(5.12046 0.306547 2.77129e-20)
(5.08632 0.341385 0)
(5.04901 0.380409 -4.42597e-20)
(5.00828 0.42415 2.88625e-20)
(4.96391 0.473204 -2.06253e-20)
(4.91564 0.528242 -3.63526e-20)
(4.86323 0.590016 1.87777e-20)
(4.80645 0.659368 -1.2222e-20)
(4.74507 0.737234 3.8476e-20)
(4.6789 0.824654 -3.70441e-20)
(4.60775 0.922775 -1.82448e-20)
(4.5315 1.03286 -2.11653e-20)
(4.45006 1.15626 0)
(4.36339 1.29447 1.39896e-20)
(4.27151 1.44905 3.05738e-20)
(4.17452 1.62167 1.35932e-20)
(4.07258 1.81402 -3.33332e-20)
(3.96591 2.02791 -1.09803e-20)
(3.8549 2.26498 1.95916e-20)
(3.73966 2.52718 2.97848e-21)
(3.62135 2.81535 2.82414e-21)
(3.49694 3.13178 -8.23701e-21)
(3.35654 3.4473 0)
(3.02529 3.57659 1.00137e-21)
(1.84137 2.44863 -4.59844e-21)
(5.38014 0.0644452 3.23914e-20)
(5.37388 0.072589 -6.21888e-21)
(5.36618 0.0812907 -4.81401e-20)
(5.35748 0.090642 0)
(5.34759 0.100856 4.58966e-20)
(5.33644 0.112091 -1.45733e-20)
(5.32399 0.12448 5.99918e-20)
(5.31016 0.138171 -4.12512e-20)
(5.29482 0.153356 3.52441e-20)
(5.2779 0.170201 -3.13095e-20)
(5.25927 0.18892 -4.37217e-20)
(5.23874 0.209785 0)
(5.21622 0.233033 0)
(5.19153 0.258969 0)
(5.16449 0.287935 -2.13676e-20)
(5.13493 0.320309 -2.5382e-20)
(5.10265 0.356517 3.40905e-20)
(5.06746 0.397037 -4.00917e-20)
(5.02915 0.442407 -2.10994e-20)
(4.98754 0.493234 6.59316e-21)
(4.94243 0.550194 -4.05096e-20)
(4.89364 0.614045 -1.83696e-20)
(4.841 0.685634 -1.6218e-20)
(4.78436 0.765901 -3.11214e-20)
(4.72363 0.855885 6.68424e-20)
(4.65872 0.956731 -3.98377e-21)
(4.58962 1.06969 -4.80974e-21)
(4.51637 1.19612 2.5973e-20)
(4.43906 1.33749 -1.17065e-20)
(4.35788 1.49535 -1.78111e-20)
(4.27308 1.67133 2.2111e-20)
(4.18501 1.86713 1.3496e-20)
(4.09407 2.08451 0)
(4.00087 2.32508 -1.02033e-20)
(3.90565 2.59082 0)
(3.80986 2.88239 0)
(3.71009 3.20217 8.83072e-21)
(3.59424 3.51739 0)
(3.26322 3.63507 0)
(1.98833 2.45393 0)
(5.38256 0.0674553 -5.07454e-20)
(5.3766 0.0759565 0)
(5.36933 0.0850339 1.06833e-19)
(5.3611 0.0947862 -6.03286e-20)
(5.35169 0.10543 0)
(5.34107 0.117132 4.54574e-20)
(5.32921 0.130031 -5.57178e-21)
(5.31603 0.144279 6.74199e-21)
(5.30142 0.160077 -7.30711e-21)
(5.28532 0.177594 6.92699e-20)
(5.2676 0.197047 -4.06071e-20)
(5.24811 0.21872 0)
(5.22674 0.242853 -2.87253e-20)
(5.20337 0.269757 4.49267e-21)
(5.17782 0.299781 3.62286e-20)
(5.14994 0.33331 4.25947e-20)
(5.11957 0.370774 -2.25318e-20)
(5.08656 0.412659 3.94695e-20)
(5.05073 0.459507 -4.01804e-21)
(5.01195 0.511929 6.17525e-21)
(4.97007 0.570603 2.19642e-20)
(4.92497 0.636289 0)
(4.87654 0.709831 2.36612e-20)
(4.82473 0.792165 -2.71942e-20)
(4.76952 0.884323 -2.68181e-20)
(4.71092 0.987436 -3.83015e-21)
(4.64905 1.10274 4.20444e-21)
(4.58404 1.23157 -2.02982e-20)
(4.51616 1.37537 1.14767e-20)
(4.44573 1.53565 -1.46895e-20)
(4.37316 1.71402 -1.08521e-20)
(4.29899 1.91211 1.72022e-20)
(4.22379 2.13166 -1.10316e-20)
(4.14837 2.37421 0)
(4.07314 2.64174 5.19285e-21)
(3.99981 2.9347 1.96788e-21)
(3.92449 3.25559 -4.95962e-21)
(3.83245 3.56756 1.37572e-21)
(3.49829 3.6707 -1.96071e-22)
(2.12725 2.43866 -1.16439e-21)
(5.38502 0.0704076 3.99168e-20)
(5.37947 0.0791587 -5.78053e-21)
(5.37269 0.0886344 -4.57277e-20)
(5.36489 0.0987703 1.30019e-21)
(5.35596 0.109821 0)
(5.34589 0.121963 -3.78758e-20)
(5.33464 0.135342 0)
(5.32213 0.150114 -6.46525e-21)
(5.30827 0.166487 7.0089e-21)
(5.29302 0.184631 -3.79108e-20)
(5.27625 0.204771 4.47722e-20)
(5.25781 0.227196 0)
(5.23765 0.252148 5.55767e-20)
(5.21562 0.279946 0)
(5.19159 0.310944 -7.52948e-22)
(5.16544 0.345528 -2.95936e-20)
(5.13704 0.384135 6.64934e-21)
(5.10625 0.427252 3.15653e-20)
(5.07296 0.475425 9.12538e-22)
(5.03706 0.529261 0)
(4.99846 0.589441 0)
(4.95709 0.656718 3.9445e-21)
(4.91294 0.731928 -1.8152e-20)
(4.86601 0.815997 2.16139e-20)
(4.81635 0.909939 1.71708e-20)
(4.76412 1.01486 0)
(4.70949 1.13198 0)
(4.65276 1.26259 0)
(4.5943 1.40809 1.86129e-20)
(4.53459 1.56996 8.71644e-21)
(4.4742 1.74973 5.82874e-21)
(4.41385 1.94898 -8.00082e-21)
(4.35427 2.1694 1.32279e-21)
(4.29647 2.41242 3.34279e-21)
(4.24102 2.68003 -6.86534e-21)
(4.18991 2.9724 0)
(4.13857 3.29215 0)
(4.06921 3.59794 0)
(3.72791 3.68364 1.1063e-21)
(2.25548 2.40303 -1.94596e-22)
(5.38763 0.0739064 -3.7788e-20)
(5.38218 0.0823264 0)
(5.37615 0.0920818 -6.35558e-21)
(5.36885 0.102587 7.14151e-20)
(5.36041 0.114022 3.8623e-22)
(5.3509 0.126578 2.83311e-20)
(5.34027 0.140405 -3.615e-20)
(5.32846 0.155666 -5.88097e-21)
(5.31537 0.172574 -2.71336e-20)
(5.30098 0.191303 -3.11944e-20)
(5.28518 0.212078 0)
(5.26783 0.235197 1.61474e-20)
(5.24889 0.260905 -2.04838e-20)
(5.22825 0.289522 -2.66386e-20)
(5.20579 0.321406 -4.1513e-20)
(5.1814 0.356946 0)
(5.15499 0.396581 2.51905e-20)
(5.12647 0.440797 -3.50112e-20)
(5.09575 0.490139 5.26083e-21)
(5.06277 0.545212 0)
(5.02749 0.606688 0)
(4.9899 0.675312 -1.37693e-20)
(4.95005 0.751908 0)
(4.90802 0.83738 -1.83303e-20)
(4.86394 0.932721 -2.26526e-20)
(4.81806 1.03901 1.1901e-20)
(4.77067 1.15742 -1.33905e-20)
(4.72217 1.2892 -3.94436e-21)
(4.67307 1.43569 -1.39996e-20)
(4.62398 1.59831 -2.32988e-21)
(4.57565 1.77853 2.54095e-21)
(4.52892 1.97784 -1.38529e-20)
(4.48472 2.19785 6.05676e-21)
(4.44425 2.43987 2.65776e-21)
(4.40821 2.70589 3.57952e-21)
(4.37887 2.99572 5.47446e-22)
(4.35082 3.31218 -5.83358e-22)
(4.30258 3.60882 -7.82096e-24)
(3.94947 3.67435 0)
(2.37019 2.34746 -1.56964e-21)
(5.39023 0.0769599 3.72921e-20)
(5.38512 0.0855094 5.37698e-21)
(5.37968 0.0954343 -5.86754e-21)
(5.37293 0.106244 0)
(5.36502 0.118029 0)
(5.35609 0.130968 3.49779e-20)
(5.34609 0.145213 4.62563e-20)
(5.33499 0.160927 -1.15869e-20)
(5.3227 0.178332 3.66499e-20)
(5.3092 0.197599 5.69029e-20)
(5.29438 0.218958 -3.5216e-20)
(5.27815 0.242714 -4.79269e-20)
(5.26046 0.26911 -2.17322e-20)
(5.24123 0.29847 4.84925e-21)
(5.22035 0.331153 -3.74287e-21)
(5.19776 0.36755 1.03398e-20)
(5.17338 0.408097 -7.10472e-21)
(5.14715 0.453279 3.66801e-21)
(5.11903 0.503636 2.92858e-20)
(5.089 0.559766 -5.00659e-21)