/*--------------------------------*- C++ -*----------------------------------*\
  =========                 |
  \\      /  F ield         | OpenFOAM: The Open Source CFD Toolbox
   \\    /   O peration     | Website:  https://openfoam.org
    \\  /    A nd           | Version:  13
     \\/     M anipulation  |
\*---------------------------------------------------------------------------*/
FoamFile
{
    format      ascii;
    class       volVectorField;
    location    "282";
    object      wallShearStress;
}
// * * * * * * * * * * * * * * * * * * * * * * * * * * * * * * * * * * * * * //

dimensions      [0 2 -2 0 0 0 0];

internalField   uniform (0 0 0);

boundaryField
{
    above
    {
        type            calculated;
        value           uniform (0 0 0);
    }
    top
    {
        type            calculated;
        value           uniform (0 0 0);
    }
    inlet
    {
        type            calculated;
        value           uniform (0 0 0);
    }
    outlet
    {
        type            calculated;
        value           uniform (0 0 0);
    }
    plate
    {
        type            calculated;
        value           nonuniform List<vector> 
340
(
(-0.185797 -0.0799095 0)
(-0.180118 -0.229386 -6.9888e-21)
(-0.197498 -0.370433 6.3438e-21)
(-0.229393 -0.512833 1.69192e-20)
(-0.271935 -0.653112 -1.02501e-20)
(-0.324092 -0.788941 4.48266e-21)
(-0.38529 -0.918864 -3.99143e-21)
(-0.454891 -1.04168 -7.07266e-21)
(-0.532152 -1.15628 0)
(-0.616224 -1.26164 0)
(-0.706144 -1.35685 0)
(-0.80083 -1.4411 -4.32107e-21)
(-0.899092 -1.51369 6.17307e-21)
(-0.999638 -1.57402 -8.65442e-21)
(-1.10107 -1.62161 -4.41002e-21)
(-1.2019 -1.65606 -1.00504e-21)
(-1.30058 -1.67712 3.24994e-21)
(-1.39546 -1.68467 0)
(-1.48485 -1.67872 7.35393e-22)
(-1.56696 -1.65945 -2.91557e-22)
(-1.63994 -1.62718 1.08044e-21)
(-1.70185 -1.58266 0)
(-1.75018 -1.52597 0)
(-1.78342 -1.45733 5.19137e-21)
(-1.80085 -1.37749 -8.38396e-21)
(-1.80174 -1.28771 6.70757e-21)
(-1.78532 -1.18973 -7.20433e-21)
(-1.75091 -1.08551 4.01251e-21)
(-1.69817 -0.977118 0)
(-1.62726 -0.866645 -9.47375e-21)
(-1.53892 -0.756204 1.01653e-20)
(-1.43452 -0.647883 -1.64508e-20)
(-1.31605 -0.543706 1.76918e-20)
(-1.18614 -0.445583 -3.19162e-22)
(-1.04802 -0.355258 -1.00532e-20)
(-0.905406 -0.274257 3.63837e-21)
(-0.762375 -0.203841 -3.64221e-21)
(-0.623031 -0.144972 1.97929e-21)
(-0.491444 -0.0984534 1.06811e-21)
(-0.36995 -0.0638009 5.49976e-22)
(-0.269121 -0.0363027 0)
(-0.195024 -0.0172944 0)
(-0.139897 -0.00820094 0)
(-0.0983554 -0.00466756 0)
(-0.066403 -0.00347508 0)
(-0.0412153 -0.00288664 0)
(-0.0209994 -0.00220151 0)
(-0.00473266 -0.00131832 0)
(0.00820445 -0.000409679 0)
(0.0183327 0.000319532 0)
(0.026201 0.000778653 0)
(0.032337 0.00100547 0)
(0.0371498 0.00109986 0)
(0.0408997 0.00114953 0)
(0.0437283 0.00119677 0)
(0.0457212 0.00124336 0)
(0.0469588 0.00127477 0)
(0.047534 0.00128055 0)
(0.0475433 0.00126247 0)
(0.0470664 0.00123077 0)
(0.046155 0.00119628 0)
(0.044836 0.00116561 0)
(0.0431207 0.00114017 0)
(0.0410171 0.00111799 0)
(0.038536 0.00109733 0)
(0.0356854 0.00107815 0)
(0.0324706 0.00106127 0)
(0.0288882 0.00104793 0)
(0.0249285 0.00103758 0)
(0.0205859 0.00102798 0)
(0.0158592 0.00101906 0)
(0.0107439 0.00101077 0)
(0.00524248 0.00100085 0)
(-0.000631339 0.000987994 0)
(-0.00686375 0.000972851 0)
(-0.0134371 0.000954188 0)
(-0.0203157 0.000930136 0)
(-0.0274518 0.000900629 0)
(-0.0347912 0.000865502 0)
(-0.0422669 0.000824184 0)
(-0.049798 0.000776675 0)
(-0.0572945 0.000723499 0)
(-0.0646609 0.000665491 0)
(-0.0717999 0.000603862 0)
(-0.0786175 0.000540076 0)
(-0.0850275 0.000475686 0)
(-0.0909557 0.000412239 0)
(-0.0963426 0.000351161 0)
(-0.101146 0.00029367 0)
(-0.105341 0.000240852 0)
(-0.108925 0.000193298 0)
(-0.111906 0.000151057 0)
(-0.114301 0.000114217 0)
(-0.116142 8.27662e-05 0)
(-0.11747 5.64309e-05 0)
(-0.118331 3.4764e-05 0)
(-0.118772 1.72114e-05 0)
(-0.118841 3.21277e-06 0)
(-0.118583 -7.7389e-06 0)
(-0.11804 -1.61595e-05 0)
(-0.117252 -2.25105e-05 0)
(-0.116252 -2.71488e-05 0)
(-0.115073 -3.03847e-05 0)
(-0.113742 -3.25041e-05 0)
(-0.112284 -3.37041e-05 0)
(-0.110723 -3.41757e-05 0)
(-0.109077 -3.41273e-05 0)
(-0.107364 -3.36742e-05 0)
(-0.105596 -3.29114e-05 0)
(-0.103786 -3.19154e-05 0)
(-0.101945 -3.07413e-05 0)
(-0.100083 -2.94575e-05 0)
(-0.0982083 -2.81143e-05 0)
(-0.0963264 -2.67376e-05 0)
(-0.094443 -2.53592e-05 0)
(-0.0925622 -2.39947e-05 0)
(-0.0906886 -2.26491e-05 0)
(-0.0888263 -2.13296e-05 0)
(-0.0869792 -2.0024e-05 0)
(-0.0851548 -1.87301e-05 0)
(-0.0834035 -1.75504e-05 0)
(-0.0817504 -1.65121e-05 0)
(-0.0801752 -1.55416e-05 0)
(-0.0786742 -1.46426e-05 0)
(-0.0772415 -1.38219e-05 0)
(-0.0758713 -1.30706e-05 0)
(-0.0745585 -1.23807e-05 0)
(-0.0732986 -1.1746e-05 0)
(-0.0720877 -1.11607e-05 0)
(-0.0709222 -1.0619e-05 0)
(-0.0697988 -1.01164e-05 0)
(-0.0687147 -9.6483e-06 0)
(-0.0676674 -9.21082e-06 0)
(-0.0666549 -8.80088e-06 0)
(-0.065675 -8.41598e-06 0)
(-0.0647259 -8.05415e-06 0)
(-0.063806 -7.71375e-06 0)
(-0.0629137 -7.3926e-06 0)
(-0.0620477 -7.0909e-06 0)
(-0.0612061 -6.8091e-06 0)
(-0.0603876 -6.54293e-06 0)
(-0.0595911 -6.28853e-06 0)
(-0.0588161 -6.04468e-06 0)
(-0.0580617 -5.81197e-06 0)
(-0.0573272 -5.59013e-06 0)
(-0.0566117 -5.37933e-06 0)
(-0.0559145 -5.17884e-06 0)
(-0.0552346 -4.98875e-06 0)
(-0.0545713 -4.80809e-06 0)
(-0.0539239 -4.63668e-06 0)
(-0.0532916 -4.47304e-06 0)
(-0.0526738 -4.31714e-06 0)
(-0.05207 -4.16766e-06 0)
(-0.0514797 -4.02486e-06 0)
(-0.0509024 -3.88749e-06 0)
(-0.0503377 -3.75621e-06 0)
(-0.0497853 -3.63008e-06 0)
(-0.0492445 -3.50961e-06 0)
(-0.0487151 -3.39449e-06 0)
(-0.0481965 -3.28474e-06 0)
(-0.0476882 -3.17998e-06 0)
(-0.0471898 -3.08015e-06 0)
(-0.0467009 -2.98405e-06 0)
(-0.0462214 -2.89093e-06 0)
(-0.0457509 -2.80143e-06 0)
(-0.0452891 -2.71676e-06 0)
(-0.0448356 -2.63586e-06 0)
(-0.0443899 -2.55771e-06 0)
(-0.0439521 -2.48155e-06 0)
(-0.0435219 -2.40733e-06 0)
(-0.0430995 -2.33524e-06 0)
(-0.0426845 -2.26534e-06 0)
(-0.0422769 -2.19731e-06 0)
(-0.0418765 -2.13343e-06 0)
(-0.0414827 -2.0712e-06 0)
(-0.0410954 -2.01267e-06 0)
(-0.0407146 -1.95371e-06 0)
(-0.04034 -1.89842e-06 0)
(-0.0399717 -1.84268e-06 0)
(-0.0396095 -1.79073e-06 0)
(-0.0392534 -1.73742e-06 0)
(-0.0389032 -1.688e-06 0)
(-0.0385591 -1.63654e-06 0)
(-0.038221 -1.58904e-06 0)
(-0.037889 -1.53978e-06 0)
(-0.0375631 -1.49067e-06 0)
(-0.0372434 -1.44556e-06 0)
(-0.0369303 -1.39675e-06 0)
(-0.0366234 -1.35174e-06 0)
(-0.0363231 -1.30096e-06 0)
(-0.0360314 -1.24979e-06 0)
(-0.0357469 -1.21045e-06 0)
(-0.0354664 -1.18162e-06 0)
(-0.0351887 -1.15489e-06 0)
(-0.0349142 -1.12673e-06 0)
(-0.0346437 -1.09234e-06 0)
(-0.03438 -1.04209e-06 0)
(-0.0341283 -9.73695e-07 0)
(-0.0338928 -8.92339e-07 0)
(-0.0336766 -8.01357e-07 0)
(-0.0334827 -7.01697e-07 0)
(-0.033313 -5.98723e-07 0)
(-0.0331688 -4.94005e-07 0)
(-0.0330506 -3.9497e-07 0)
(-0.0329592 -2.83869e-07 0)
(-0.0328953 -1.87133e-07 0)
(-0.0328599 -7.21674e-08 0)
(-0.032854 2.49955e-08 0)
(-0.0328792 1.45838e-07 0)
(-0.0329362 2.41246e-07 0)
(-0.0330263 3.68925e-07 0)
(-0.03315 4.59329e-07 0)
(-0.0333088 5.9501e-07 0)
(-0.0335035 6.8459e-07 0)
(-0.0337368 8.31435e-07 0)
(-0.0340103 9.27734e-07 0)
(-0.0343261 1.07589e-06 0)
(-0.0346858 1.17935e-06 0)
(-0.0350873 1.31613e-06 0)
(-0.0355382 1.44218e-06 0)
(-0.0360368 1.5298e-06 0)
(-0.0365568 1.56678e-06 0)
(-0.0370979 1.6532e-06 0)
(-0.0376952 1.87358e-06 0)
(-0.0384064 2.17784e-06 0)
(-0.0392287 2.40907e-06 0)
(-0.0401212 2.58095e-06 0)
(-0.0410913 2.84923e-06 0)
(-0.0421847 2.99285e-06 0)
(-0.0433246 3.06193e-06 0)
(-0.0444555 2.95021e-06 0)
(-0.0455865 2.97369e-06 0)
(-0.0467289 2.80085e-06 0)
(-0.0477709 2.59346e-06 0)
(-0.0487707 2.57578e-06 0)
(-0.049839 2.7447e-06 0)
(-0.0509934 2.71696e-06 0)
(-0.0520577 2.6279e-06 0)
(-0.0531725 2.8111e-06 0)
(-0.0544262 3.02202e-06 0)
(-0.0557418 2.86513e-06 0)
(-0.0568848 2.71748e-06 0)
(-0.0581181 2.91848e-06 0)
(-0.0594624 2.91436e-06 0)
(-0.06072 2.56384e-06 0)
(-0.0617756 1.99464e-06 0)
(-0.0625425 1.79694e-06 0)
(-0.0634475 1.95603e-06 0)
(-0.0643855 1.8134e-06 0)
(-0.065168 1.4124e-06 0)
(-0.0657417 1.00583e-06 0)
(-0.0661441 6.91931e-07 0)
(-0.0664281 4.87434e-07 0)
(-0.0666315 3.41197e-07 0)
(-0.0667775 2.4355e-07 0)
(-0.066879 1.57903e-07 0)
(-0.0669439 9.51801e-08 0)
(-0.0669778 3.9777e-08 0)
(-0.0669853 -7.13026e-09 0)
(-0.0669703 -5.12086e-08 0)
(-0.0669369 -6.83467e-08 0)
(-0.0668867 -1.08826e-07 0)
(-0.0668219 -1.15745e-07 0)
(-0.0667445 -1.35243e-07 0)
(-0.0666551 -1.6526e-07 0)
(-0.0665566 -1.55882e-07 0)
(-0.0664471 -2.04382e-07 0)
(-0.0663303 -1.78619e-07 0)
(-0.0662063 -2.23496e-07 0)
(-0.0660775 -1.94741e-07 0)
(-0.0659422 -2.34319e-07 0)
(-0.0658022 -2.03982e-07 0)
(-0.0656561 -2.48924e-07 0)
(-0.0655064 -2.15372e-07 0)
(-0.0653525 -2.49243e-07 0)
(-0.0651964 -2.35015e-07 0)
(-0.0650378 -2.36912e-07 0)
(-0.0648774 -2.3528e-07 0)
(-0.064715 -2.36501e-07 0)
(-0.0645514 -2.33635e-07 0)
(-0.0643914 -2.31658e-07 0)
(-0.0642339 -2.31699e-07 0)
(-0.0640739 -2.28463e-07 0)
(-0.0639118 -2.26815e-07 0)
(-0.0637477 -2.23323e-07 0)
(-0.0635815 -2.21219e-07 0)
(-0.0634139 -2.17417e-07 0)
(-0.0632444 -2.15675e-07 0)
(-0.0630732 -2.12229e-07 0)
(-0.0629005 -2.06759e-07 0)
(-0.0627262 -2.09588e-07 0)
(-0.0625504 -2.02529e-07 0)
(-0.0623737 -1.99145e-07 0)
(-0.0621961 -1.95919e-07 0)
(-0.0620177 -1.91194e-07 0)
(-0.0618383 -1.89738e-07 0)
(-0.0616579 -1.83489e-07 0)
(-0.0614766 -1.81403e-07 0)
(-0.0612949 -1.77281e-07 0)
(-0.0611128 -1.73875e-07 0)
(-0.06093 -1.70292e-07 0)
(-0.0607466 -1.67189e-07 0)
(-0.0605626 -1.6329e-07 0)
(-0.0603783 -1.60022e-07 0)
(-0.060194 -1.56036e-07 0)
(-0.0600094 -1.53284e-07 0)
(-0.0598242 -1.54805e-07 0)
(-0.059639 -1.41984e-07 0)
(-0.0594534 -1.48605e-07 0)
(-0.0592683 -1.3463e-07 0)
(-0.0590826 -1.4199e-07 0)
(-0.0588971 -1.27285e-07 0)
(-0.0587111 -1.35153e-07 0)
(-0.0585256 -1.20403e-07 0)
(-0.05834 -1.24029e-07 0)
(-0.0581545 -1.21197e-07 0)
(-0.057969 -1.18452e-07 0)
(-0.0577837 -1.14924e-07 0)
(-0.0575985 -1.12259e-07 0)
(-0.0574138 -1.09221e-07 0)
(-0.0572292 -1.07148e-07 0)
(-0.057045 -1.04043e-07 0)
(-0.056861 -1.01615e-07 0)
(-0.0566775 -9.79786e-08 0)
(-0.0564944 -9.64117e-08 0)
(-0.0563119 -9.10027e-08 0)
(-0.0561297 -9.43821e-08 0)
(-0.0559472 -8.62953e-08 0)
(-0.0557642 -9.11958e-08 0)
(-0.055582 -7.85286e-08 0)
(-0.0553998 -9.00623e-08 0)
(-0.0552185 -8.14311e-08 0)
(-0.0550377 -7.88958e-08 0)
(-0.0548568 -7.74081e-08 0)
(-0.0546774 -7.5823e-08 0)
(-0.0544935 -7.33008e-08 0)
(-0.0543232 -7.64375e-08 0)
(-0.0541052 -6.12829e-08 0)
(-0.0540264 -7.19388e-08 0)
(-0.0536899 -7.61148e-08 0)
)
;
    }
    defaultFaces
    {
        type            empty;
    }
}


// ************************************************************************* //
