/*--------------------------------*- C++ -*----------------------------------*\
  =========                 |
  \\      /  F ield         | OpenFOAM: The Open Source CFD Toolbox
   \\    /   O peration     | Website:  https://openfoam.org
    \\  /    A nd           | Version:  13
     \\/     M anipulation  |
\*---------------------------------------------------------------------------*/
FoamFile
{
    format      ascii;
    class       volScalarField;
    location    "262";
    object      k;
}
// * * * * * * * * * * * * * * * * * * * * * * * * * * * * * * * * * * * * * //

dimensions      [0 2 -2 0 0 0 0];

internalField   nonuniform List<scalar> 
26820
(
0.0390782
0.0385494
0.0380934
0.0376997
0.0373592
0.0370644
0.0368091
0.0390778
0.0385482
0.0380914
0.0376971
0.0373561
0.0370609
0.0368051
0.0390769
0.0385457
0.0380875
0.0376921
0.0373501
0.0370541
0.0367973
0.0390756
0.0385419
0.0380817
0.0376845
0.037341
0.0370438
0.0367856
0.0390739
0.0385369
0.0380739
0.0376744
0.0373289
0.0370302
0.03677
0.0390717
0.0385306
0.0380642
0.0376618
0.0373138
0.0370132
0.0367505
0.0390691
0.0385232
0.0380526
0.0376467
0.0372957
0.0369929
0.0367273
0.0390661
0.0385145
0.0380392
0.0376293
0.0372748
0.0369693
0.0367003
0.0390627
0.0385046
0.0380239
0.0376094
0.037251
0.0369424
0.0366697
0.0390589
0.0384936
0.0380067
0.0375871
0.0372243
0.0369124
0.0366354
0.0390547
0.0384813
0.0379878
0.0375626
0.0371949
0.0368793
0.0365976
0.0390501
0.038468
0.0379671
0.0375357
0.0371628
0.0368431
0.0365564
0.0390451
0.0384535
0.0379447
0.0375067
0.037128
0.036804
0.0365117
0.0390397
0.038438
0.0379206
0.0374754
0.0370907
0.0367619
0.0364638
0.0390339
0.0384213
0.0378948
0.0374421
0.0370508
0.0367171
0.0364128
0.0390278
0.0384037
0.0378675
0.0374067
0.0370085
0.0366695
0.0363586
0.0390214
0.038385
0.0378387
0.0373694
0.0369639
0.0366193
0.0363015
0.0390146
0.0383654
0.0378083
0.03733
0.036917
0.0365665
0.0362415
0.0390075
0.0383448
0.0377765
0.0372889
0.0368681
0.0365111
0.0361791
0.0390001
0.0383233
0.0377432
0.0372455
0.0368166
0.0364517
0.0361153
0.0365766
0.036358
0.0361655
0.0359977
0.0358538
0.0357339
0.0356392
0.0355718
0.0355364
0.0355356
0.035559
0.0356047
0.035673
0.0357649
0.0358823
0.0360271
0.0362021
0.0364105
0.0366564
0.0369441
0.0372822
0.0376653
0.038059
0.038459
0.0388686
0.0392944
0.0397455
0.0402345
0.0407798
0.0414087
0.0421669
0.0431292
0.0444593
0.0464076
0.0502169
0.0557914
0.0642914
0.0666796
0.0262351
0.00345037
0.0365728
0.0363545
0.0361623
0.0359948
0.0358512
0.0357315
0.0356369
0.0355697
0.0355343
0.0355337
0.0355573
0.0356031
0.0356715
0.0357636
0.035881
0.0360259
0.0362009
0.0364094
0.0366553
0.0369431
0.037281
0.0376647
0.0380591
0.0384596
0.0388697
0.0392959
0.0397473
0.0402366
0.040782
0.0414111
0.0421694
0.0431318
0.0444615
0.0464097
0.0502095
0.055773
0.0642692
0.0666607
0.0261712
0.00344354
0.0365654
0.0363477
0.0361562
0.0359893
0.0358462
0.0357271
0.0356329
0.035566
0.035531
0.0355308
0.0355548
0.035601
0.0356698
0.0357622
0.0358799
0.0360252
0.0362005
0.0364093
0.0366555
0.0369436
0.0372818
0.0376662
0.0380613
0.0384625
0.0388732
0.0393
0.0397521
0.0402419
0.040788
0.0414178
0.0421769
0.0431403
0.0444713
0.0464224
0.0502174
0.0557732
0.0642652
0.0666342
0.0261161
0.00344016
0.0365543
0.0363376
0.0361471
0.0359811
0.0358389
0.0357205
0.0356271
0.035561
0.0355266
0.035527
0.0355517
0.0355985
0.0356679
0.0357609
0.0358792
0.036025
0.0362009
0.0364102
0.036657
0.0369458
0.0372845
0.0376699
0.038066
0.0384681
0.0388798
0.0393075
0.0397604
0.0402512
0.0407984
0.0414295
0.0421903
0.0431561
0.0444904
0.046449
0.0502448
0.0557995
0.0642876
0.0665905
0.0260371
0.00343598
0.0365395
0.0363241
0.036135
0.0359702
0.0358292
0.0357119
0.0356194
0.0355542
0.0355207
0.0355221
0.0355476
0.0355953
0.0356655
0.0357592
0.0358783
0.0360248
0.0362015
0.0364116
0.0366592
0.0369488
0.0372883
0.0376753
0.038073
0.0384765
0.0388894
0.0393183
0.0397724
0.0402645
0.0408132
0.0414462
0.0422096
0.0431792
0.0445189
0.0464902
0.0502887
0.0558464
0.064329
0.0665144
0.0259095
0.00342896
0.036521
0.0363073
0.0361199
0.0359567
0.0358171
0.0357011
0.0356099
0.0355458
0.0355134
0.035516
0.0355426
0.0355914
0.0356625
0.0357572
0.0358772
0.0360247
0.0362023
0.0364134
0.0366619
0.0369526
0.037293
0.0376822
0.038082
0.0384874
0.0389019
0.0393323
0.039788
0.0402818
0.0408324
0.041468
0.0422348
0.0432095
0.0445568
0.0465461
0.0503492
0.0559133
0.0643884
0.0664031
0.0257245
0.00341855
0.036499
0.0362873
0.0361018
0.0359405
0.0358026
0.0356882
0.0355984
0.0355357
0.0355047
0.0355087
0.0355367
0.0355867
0.0356591
0.035755
0.0358761
0.0360247
0.0362034
0.0364156
0.0366654
0.0369573
0.0372989
0.0376905
0.0380929
0.0385006
0.0389172
0.0393496
0.0398072
0.040303
0.0408561
0.0414948
0.0422659
0.043247
0.0446042
0.0466166
0.0504271
0.0560011
0.0644672
0.0662569
0.0254807
0.00340473
0.0364734
0.0362639
0.0360808
0.0359217
0.0357858
0.0356732
0.0355852
0.0355241
0.0354946
0.0355003
0.0355299
0.0355814
0.0356552
0.0357524
0.0358749
0.0360248
0.0362049
0.0364184
0.0366695
0.036963
0.0373059
0.0377005
0.0381058
0.0385163
0.0389354
0.03937
0.0398299
0.0403283
0.0408843
0.0415267
0.0423029
0.043292
0.0446611
0.046702
0.0505224
0.0561101
0.0645654
0.0660751
0.0251787
0.00338766
0.0364443
0.0362375
0.036057
0.0359004
0.0357667
0.0356562
0.0355701
0.0355109
0.0354832
0.0354908
0.0355222
0.0355754
0.0356508
0.0357497
0.0358737
0.0360251
0.0362066
0.0364217
0.0366745
0.0369696
0.0373141
0.037712
0.0381208
0.0385344
0.0389563
0.0393937
0.0398563
0.0403576
0.0409171
0.0415639
0.0423462
0.0433445
0.0447278
0.0468028
0.0506354
0.0562403
0.0646823
0.0658554
0.0248198
0.00336759
0.0364118
0.0362078
0.0360304
0.0358765
0.0357454
0.0356372
0.0355533
0.0354962
0.0354705
0.0354802
0.0355137
0.0355689
0.0356461
0.0357467
0.0358724
0.0360255
0.0362088
0.0364256
0.0366802
0.0369773
0.0373235
0.0377253
0.038138
0.0385551
0.0389802
0.0394207
0.0398864
0.0403911
0.0409545
0.0416064
0.0423957
0.0434048
0.0448048
0.0469197
0.0507661
0.0563917
0.0648166
0.0655947
0.0244053
0.00334479
0.036376
0.0361752
0.036001
0.0358501
0.0357218
0.0356163
0.0355348
0.03548
0.0354565
0.0354686
0.0355044
0.0355617
0.035641
0.0357435
0.0358711
0.0360261
0.0362113
0.0364301
0.0366867
0.036986
0.0373341
0.0377404
0.0381574
0.0385785
0.0390072
0.039451
0.0399202
0.0404287
0.0409966
0.0416543
0.0424517
0.0434732
0.0448924
0.0470534
0.0509152
0.0565643
0.0649671
0.0652892
0.023936
0.00331951
0.0363368
0.0361395
0.0359689
0.0358214
0.0356961
0.0355934
0.0355146
0.0354623
0.0354413
0.035456
0.0354943
0.035554
0.0356355
0.0357402
0.03587
0.0360271
0.0362144
0.0364353
0.0366941
0.0369958
0.0373461
0.0377573
0.0381792
0.0386046
0.0390373
0.0394849
0.0399579
0.0404707
0.0410436
0.0417079
0.0425144
0.04355
0.0449912
0.0472049
0.051083
0.0567585
0.0651323
0.0649344
0.0234125
0.00329202
0.0362945
0.0361009
0.0359341
0.0357903
0.0356684
0.0355687
0.0354928
0.0354432
0.0354249
0.0354425
0.0354835
0.0355458
0.0356298
0.0357368
0.0358689
0.0360283
0.0362179
0.0364412
0.0367024
0.0370068
0.0373595
0.0377763
0.0382036
0.0386337
0.0390707
0.0395225
0.0399997
0.0405171
0.0410958
0.0417674
0.0425841
0.0436356
0.0451018
0.0473754
0.0512705
0.0569746
0.0653105
0.0645235
0.0228348
0.00326258
0.0362491
0.0360595
0.0358969
0.0357569
0.0356386
0.0355422
0.0354694
0.0354228
0.0354074
0.0354281
0.0354721
0.0355371
0.0356238
0.0357334
0.0358679
0.0360298
0.0362219
0.0364478
0.0367118
0.037019
0.0373744
0.0377959
0.03823
0.0386658
0.0391077
0.0395639
0.0400457
0.0405683
0.0411531
0.0418329
0.0426612
0.0437305
0.045225
0.0475663
0.0514784
0.0572131
0.0654998
0.0640607
0.022205
0.0032315
0.0362006
0.0360153
0.0358571
0.0357213
0.0356068
0.035514
0.0354445
0.0354011
0.0353888
0.0354129
0.03546
0.0355281
0.0356176
0.0357299
0.0358672
0.0360317
0.0362266
0.0364553
0.0367221
0.0370325
0.0373909
0.0378164
0.0382581
0.0387007
0.0391481
0.0396093
0.0400961
0.0406243
0.041216
0.0419049
0.0427459
0.0438352
0.0453617
0.047779
0.0517077
0.0574746
0.0656973
0.0634405
0.021511
0.00319893
0.0361492
0.0359685
0.035815
0.0356836
0.0355731
0.0354841
0.0354181
0.0353781
0.0353692
0.0353969
0.0354474
0.0355187
0.0356112
0.0357266
0.0358667
0.0360341
0.0362319
0.0364636
0.0367336
0.0370474
0.0374092
0.0378384
0.038288
0.0387384
0.0391922
0.0396589
0.0401511
0.0406854
0.0412847
0.0419835
0.0428388
0.0439504
0.0455129
0.0480157
0.0519597
0.0577597
0.0658995
0.06266
0.020747
0.0031649
0.0360951
0.0359191
0.0357705
0.0356438
0.0355376
0.0354526
0.0353903
0.035354
0.0353486
0.0353801
0.0354344
0.0355091
0.0356048
0.0357233
0.0358665
0.0360371
0.036238
0.0364729
0.0367463
0.0370636
0.0374293
0.0378622
0.0383201
0.0387788
0.0392398
0.0397127
0.040211
0.0407519
0.0413594
0.0420693
0.0429404
0.0440767
0.0456798
0.0482779
0.0522352
0.0580688
0.0661019
0.0617318
0.0199126
0.00312959
0.0360382
0.0358672
0.0357239
0.035602
0.0355004
0.0354195
0.0353612
0.0353287
0.0353271
0.0353627
0.0354209
0.0354992
0.0355985
0.0357202
0.0358668
0.0360406
0.0362448
0.0364833
0.0367602
0.0370814
0.0374513
0.037888
0.0383547
0.0388223
0.0392912
0.039771
0.0402759
0.0408241
0.0414405
0.0421625
0.0430511
0.044215
0.0458637
0.0485719
0.0525368
0.0584026
0.0662995
0.0606658
0.0190106
0.00309336
0.0359786
0.0358129
0.0356752
0.0355584
0.0354615
0.035385
0.0353309
0.0353024
0.0353048
0.0353448
0.035407
0.0354892
0.0355921
0.0357175
0.0358675
0.0360448
0.0362526
0.0364947
0.0367755
0.0371008
0.0374752
0.0379161
0.0383922
0.0388691
0.0393465
0.0398339
0.0403461
0.0409022
0.0415285
0.0422637
0.0431717
0.0443663
0.0460668
0.0488728
0.0528618
0.0587619
0.0664864
0.0594677
0.0180454
0.0030567
0.0359192
0.0357564
0.0356239
0.0355129
0.035421
0.0353492
0.0352994
0.0352752
0.0352817
0.0353263
0.0353929
0.0354792
0.0355859
0.035715
0.0358687
0.0360497
0.0362613
0.0365073
0.0367923
0.037122
0.0375012
0.0379466
0.0384328
0.0389197
0.039406
0.0399017
0.0404218
0.0409866
0.0416236
0.0423735
0.0433029
0.0445317
0.0462916
0.0491755
0.0532065
0.0591466
0.0666558
0.0581389
0.0170225
0.0030202
0.035844
0.0357036
0.0355734
0.0354659
0.035379
0.035312
0.0352668
0.035247
0.035258
0.0353075
0.0353786
0.0354692
0.03558
0.035713
0.0358706
0.0360555
0.0362711
0.0365213
0.0368106
0.037145
0.0375294
0.0379795
0.0384768
0.0389743
0.0394701
0.0399745
0.0405034
0.0410777
0.0417264
0.0424924
0.0434455
0.0447125
0.0465406
0.0494847
0.0535692
0.0595561
0.0667994
0.0566775
0.0159465
0.00298448
0.0357682
0.0356452
0.0355223
0.0354182
0.0353356
0.0352736
0.0352332
0.035218
0.0352336
0.0352883
0.0353643
0.0354593
0.0355744
0.0357115
0.0358732
0.0360622
0.0362821
0.0365366
0.0368306
0.03717
0.0375599
0.0380151
0.0385244
0.0390332
0.0395391
0.0400529
0.040591
0.0411757
0.0418373
0.0426211
0.0436006
0.0449101
0.0468161
0.0498055
0.0539498
0.0599893
0.0669068
0.0550793
0.014828
0.00294981
0.035694
0.0355819
0.0354689
0.0353696
0.0352912
0.035234
0.0351986
0.0351883
0.0352088
0.0352688
0.0353499
0.0354496
0.0355691
0.0357106
0.0358766
0.03607
0.0362943
0.0365535
0.0368524
0.037197
0.0375928
0.0380535
0.0385764
0.0390971
0.0396134
0.0401371
0.0406853
0.0412812
0.041957
0.0427604
0.0437693
0.0451263
0.0471221
0.0501426
0.0543496
0.0604448
0.0669654
0.0533366
0.0136444
0.00293381
0.0356205
0.0355157
0.0354127
0.0353199
0.035246
0.0351935
0.0351631
0.0351579
0.0351835
0.0352493
0.0353356
0.0354403
0.0355644
0.0357104
0.0358809
0.0360789
0.0363079
0.0365721
0.0368762
0.0372264
0.0376284
0.038095
0.0386308
0.039166
0.0396936
0.0402276
0.0407865
0.0413948
0.0420861
0.0429112
0.0439528
0.0453633
0.0474544
0.0504992
0.0547704
0.0609208
0.06696
0.0514385
0.0123841
0.00293512
0.035547
0.0354478
0.0353541
0.0352687
0.0351999
0.0351521
0.0351268
0.0351269
0.0351579
0.0352297
0.0353216
0.0354313
0.0355604
0.0357111
0.0358863
0.0360891
0.036323
0.0365924
0.0369021
0.0372582
0.0376668
0.0381397
0.0386872
0.0392396
0.03978
0.0403249
0.0408953
0.0415169
0.0422254
0.0430745
0.0441527
0.0456238
0.0477947
0.0508752
0.0552145
0.061415
0.0668719
0.0493701
0.0110528
0.00294186
0.0354727
0.0353789
0.0352934
0.0352159
0.0351529
0.0351101
0.03509
0.0350955
0.035132
0.0352102
0.0353079
0.0354229
0.035557
0.0357127
0.0358928
0.0361006
0.0363398
0.0366147
0.0369302
0.0372926
0.0377082
0.0381881
0.0387463
0.0393182
0.0398729
0.0404295
0.0410121
0.0416482
0.0423756
0.0432515
0.0443706
0.0459102
0.048143
0.0512705
0.0556842
0.0619235
0.0666793
0.0470834
0.00973473
0.00295048
0.0353973
0.0353091
0.0352312
0.0351617
0.035105
0.0350674
0.0350526
0.0350637
0.0351061
0.0351909
0.0352946
0.0354152
0.0355545
0.0357153
0.0359006
0.0361137
0.0363584
0.036639
0.0369607
0.0373298
0.0377528
0.0382402
0.0388086
0.0394021
0.0399729
0.0405421
0.0411377
0.0417896
0.0425378
0.0434435
0.0446088
0.0462293
0.0485033
0.0516857
0.0561814
0.0624411
0.0663577
0.0445882
0.00845585
0.00296075
0.0353207
0.0352385
0.0351678
0.0351061
0.0350561
0.0350241
0.0350148
0.0350316
0.0350801
0.0351719
0.0352819
0.0354083
0.035553
0.0357192
0.0359099
0.0361285
0.0363789
0.0366656
0.0369938
0.03737
0.0378009
0.0382965
0.0388749
0.0394916
0.0400804
0.0406633
0.0412728
0.0419418
0.042713
0.0436521
0.0448693
0.0465588
0.0488775
0.0521224
0.0567079
0.0629581
0.0658659
0.0419242
0.00722774
0.00297258
0.0352429
0.0351672
0.0351035
0.0350495
0.0350064
0.0349804
0.0349766
0.0349994
0.0350543
0.0351533
0.03527
0.0354023
0.0355527
0.0357244
0.0359206
0.036145
0.0364015
0.0366947
0.0370298
0.0374134
0.0378526
0.0383572
0.0389456
0.039584
0.0401954
0.0407936
0.0414181
0.0421058
0.0429026
0.0438792
0.0451575
0.0468973
0.0492668
0.0525829
0.0572651
0.0634817
0.0651416
0.0391221
0.00606254
0.00298534
0.035164
0.0350952
0.0350384
0.034992
0.034956
0.0349362
0.0349383
0.0349672
0.0350287
0.0351352
0.0352588
0.0353973
0.0355535
0.035731
0.0359332
0.0361636
0.0364265
0.0367264
0.0370688
0.0374603
0.0379084
0.0384224
0.0390215
0.0396797
0.040319
0.0409339
0.0415746
0.0422828
0.0431081
0.044127
0.0454612
0.0472462
0.0496729
0.0530697
0.0578568
0.0640346
0.0641058
0.036206
0.00497317
0.00299806
0.0350841
0.0350224
0.0349728
0.0349338
0.034905
0.0348916
0.0348998
0.0349351
0.0350035
0.0351177
0.0352487
0.0353936
0.0355559
0.0357393
0.0359476
0.0361844
0.0364539
0.0367609
0.037111
0.037511
0.0379684
0.0384927
0.039103
0.0397797
0.0404477
0.0410849
0.0417431
0.0424737
0.0433311
0.0443975
0.0457741
0.0476072
0.0500983
0.0535859
0.0585063
0.064577
0.0626741
0.0331961
0.00397176
0.00300948
0.0350034
0.0349491
0.0349067
0.0348751
0.0348535
0.0348468
0.0348614
0.0349033
0.0349789
0.0351011
0.0352397
0.0353912
0.0355597
0.0357494
0.035964
0.0362075
0.036484
0.0367986
0.0371568
0.0375657
0.038033
0.0385683
0.0391906
0.0398852
0.0405802
0.0412453
0.0419258
0.0426816
0.0435736
0.0446775
0.0460964
0.0479825
0.0505451
0.0541383
0.0592266
0.0650545
0.0607788
0.0301148
0.00306847
0.0030181
0.0349219
0.0348753
0.0348402
0.034816
0.0348017
0.0348019
0.034823
0.0348718
0.0349549
0.0350856
0.035232
0.0353904
0.0355654
0.0357615
0.0359828
0.0362331
0.0365171
0.0368396
0.0372065
0.0376248
0.0381026
0.0386497
0.0392848
0.039997
0.0407173
0.0414104
0.0421171
0.0429004
0.0438245
0.0449656
0.0464295
0.0483736
0.0510166
0.0547374
0.0600246
0.0653955
0.0583965
0.0269926
0.00227106
0.00302223
0.03484
0.034801
0.0347735
0.0347567
0.0347498
0.0347569
0.0347849
0.0348408
0.0349319
0.0350713
0.0352259
0.0353913
0.035573
0.0357758
0.036004
0.0362616
0.0365533
0.0368842
0.0372602
0.0376886
0.0381776
0.0387372
0.0393862
0.040116
0.0408603
0.0415804
0.0423139
0.0431257
0.0440825
0.0452624
0.0467751
0.0487832
0.0515175
0.0553972
0.0608974
0.0655116
0.0555283
0.0238663
0.00158492
0.00302012
0.0347576
0.0347265
0.0347066
0.0346973
0.0346978
0.0347121
0.0347472
0.0348106
0.0349099
0.0350585
0.0352215
0.0353941
0.0355827
0.0357924
0.0360279
0.0362932
0.036593
0.0369328
0.0373185
0.0377575
0.0382584
0.0388315
0.0394954
0.0402431
0.0410103
0.0417561
0.0425165
0.0433575
0.0443482
0.0455697
0.0471355
0.0492144
0.0520545
0.0561351
0.0618272
0.0653004
0.0522042
0.0207772
0.00101224
0.00301018
0.034675
0.0346519
0.0346397
0.034638
0.0346459
0.0346676
0.03471
0.0347811
0.0348891
0.0350475
0.035219
0.035399
0.0355947
0.0358117
0.0360547
0.0363281
0.0366365
0.0369856
0.0373816
0.037832
0.0383456
0.038933
0.039613
0.0403792
0.0411684
0.0419387
0.0427257
0.0435968
0.0446234
0.0458895
0.0475135
0.0496705
0.0526376
0.0569703
0.0627732
0.0646513
0.0484884
0.0177758
0.000570652
0.00299158
0.0345923
0.0345772
0.034573
0.0345789
0.0345944
0.0346235
0.0346735
0.0347527
0.0348699
0.0350384
0.0352188
0.0354063
0.0356093
0.0358339
0.0360848
0.0363665
0.0366841
0.0370431
0.0374499
0.0379125
0.0384396
0.0390425
0.0397398
0.0405251
0.0413354
0.0421292
0.0429429
0.0438453
0.0449098
0.0462241
0.0479116
0.050156
0.053282
0.0579193
0.063665
0.0634547
0.0444791
0.0148852
0.000148952
0.00296166
0.0345097
0.0345027
0.0345065
0.0345201
0.0345432
0.03458
0.0346379
0.0347256
0.0348524
0.0350316
0.0352211
0.0354162
0.0356267
0.0358591
0.0361183
0.036409
0.0367361
0.0371056
0.0375241
0.0379995
0.0385412
0.0391606
0.0398766
0.0406816
0.0415122
0.0423289
0.0431695
0.0441044
0.0452095
0.0465761
0.0483329
0.0506779
0.0540094
0.0589887
0.0643964
0.0616021
0.040262
0.0121879
0.0015373
0.00292204
0.0344273
0.0344284
0.0344404
0.0344618
0.0344926
0.0345373
0.0346033
0.0347
0.034837
0.0350274
0.0352261
0.0354288
0.0356472
0.0358878
0.0361557
0.0364558
0.0367931
0.0371737
0.0376045
0.0380937
0.0386509
0.0392884
0.0400246
0.0408497
0.0416999
0.0425389
0.0434069
0.0443761
0.0455247
0.0469483
0.0487807
0.051247
0.0548472
0.0601652
0.0648156
0.0589987
0.0359562
0.00976261
0.0012705
0.0028796
0.0343451
0.0343547
0.0343748
0.0344041
0.0344427
0.0344953
0.0345697
0.0346757
0.0348236
0.0350255
0.0352335
0.0354441
0.0356705
0.0359197
0.0361967
0.0365065
0.0368546
0.0372471
0.037691
0.0381948
0.0387686
0.0394255
0.0401834
0.041029
0.0418983
0.0427594
0.0436557
0.0446612
0.045857
0.0473423
0.049259
0.0518821
0.0558265
0.0613927
0.0647361
0.0556246
0.0316172
0.00760912
0.00105263
0.00283718
0.0389936
0.0383105
0.0377252
0.0372232
0.0367914
0.0364202
0.0360988
0.0389936
0.0383105
0.0377252
0.037223
0.0367911
0.0364187
0.0360979
0.0389936
0.0383106
0.0377254
0.0372232
0.0367912
0.0364186
0.0360973
0.0389936
0.0383106
0.0377254
0.0372232
0.0367911
0.0364183
0.0360966
0.0389936
0.0383106
0.0377254
0.0372232
0.036791
0.036418
0.036096
0.0389936
0.0383106
0.0377254
0.0372231
0.0367908
0.0364177
0.0360954
0.0389936
0.0383105
0.0377253
0.037223
0.0367906
0.0364173
0.0360948
0.0389936
0.0383105
0.0377252
0.0372228
0.0367903
0.0364169
0.0360942
0.0389936
0.0383104
0.037725
0.0372225
0.03679
0.0364164
0.0360936
0.0389935
0.0383103
0.0377248
0.0372223
0.0367896
0.0364159
0.0360929
0.0389935
0.0383102
0.0377247
0.037222
0.0367892
0.0364154
0.0360923
0.0389935
0.0383101
0.0377245
0.0372218
0.0367889
0.0364149
0.0360917
0.0389934
0.03831
0.0377244
0.0372215
0.0367886
0.0364145
0.0360911
0.0389934
0.0383099
0.0377242
0.0372213
0.0367883
0.0364141
0.0360907
0.0389934
0.0383099
0.0377241
0.0372212
0.0367881
0.0364139
0.0360903
0.0389934
0.0383099
0.0377241
0.0372211
0.0367879
0.0364136
0.03609
0.0389934
0.0383098
0.037724
0.037221
0.0367878
0.0364134
0.0360898
0.0389934
0.0383098
0.037724
0.0372209
0.0367877
0.0364133
0.0360896
0.0389934
0.0383098
0.037724
0.0372209
0.0367876
0.0364132
0.0360895
0.0389934
0.0383098
0.0377239
0.0372208
0.0367876
0.0364131
0.0360894
0.0389934
0.0383098
0.0377239
0.0372208
0.0367875
0.0364131
0.0360893
0.0389934
0.0383098
0.0377239
0.0372208
0.0367875
0.036413
0.0360893
0.0389934
0.0383098
0.0377239
0.0372208
0.0367875
0.036413
0.0360893
0.0389934
0.0383098
0.0377239
0.0372208
0.0367875
0.036413
0.0360892
0.0389934
0.0383098
0.0377239
0.0372208
0.0367874
0.036413
0.0360892
0.0389934
0.0383098
0.0377239
0.0372208
0.0367874
0.036413
0.0360892
0.0389934
0.0383098
0.0377239
0.0372208
0.0367874
0.036413
0.0360892
0.0389934
0.0383098
0.0377239
0.0372208
0.0367874
0.036413
0.0360892
0.0389934
0.0383098
0.0377239
0.0372208
0.0367874
0.036413
0.0360892
0.0389934
0.0383098
0.0377239
0.0372208
0.0367874
0.036413
0.0360892
0.0389934
0.0383098
0.0377239
0.0372208
0.0367874
0.036413
0.0360892
0.0389934
0.0383098
0.0377239
0.0372208
0.0367874
0.0364129
0.0360891
0.0389934
0.0383098
0.0377239
0.0372207
0.0367874
0.0364129
0.0360891
0.0389934
0.0383098
0.0377239
0.0372207
0.0367874
0.0364129
0.0360891
0.0389934
0.0383098
0.0377239
0.0372207
0.0367874
0.0364129
0.0360891
0.0389934
0.0383098
0.0377239
0.0372207
0.0367874
0.0364129
0.0360891
0.0389934
0.0383098
0.0377239
0.0372207
0.0367874
0.0364129
0.0360891
0.0389934
0.0383098
0.0377239
0.0372207
0.0367874
0.036413
0.0360891
0.0389934
0.0383098
0.0377239
0.0372207
0.0367874
0.036413
0.0360891
0.0389934
0.0383098
0.0377239
0.0372207
0.0367874
0.036413
0.0360891
0.0359179
0.0358496
0.0357791
0.0357061
0.0356304
0.0355525
0.0354725
0.0353906
0.0353072
0.0352225
0.0351366
0.0350499
0.0349624
0.0348745
0.0347861
0.0346977
0.0346092
0.034521
0.0344331
0.0343458
0.0359133
0.0358419
0.0357683
0.0356925
0.0356147
0.0355352
0.0354542
0.0353717
0.035288
0.0352033
0.0351175
0.035031
0.0349438
0.0348561
0.0347681
0.0346798
0.0345915
0.0345033
0.0344152
0.0343277
0.0359124
0.0358411
0.0357676
0.035692
0.0356145
0.0355353
0.0354545
0.0353721
0.0352885
0.0352037
0.0351179
0.0350312
0.0349438
0.0348558
0.0347675
0.0346789
0.0345902
0.0345015
0.034413
0.034325
0.0359114
0.0358399
0.0357663
0.0356906
0.0356129
0.0355334
0.0354524
0.0353699
0.035286
0.035201
0.0351149
0.035028
0.0349404
0.0348522
0.0347636
0.0346748
0.0345858
0.0344969
0.0344082
0.0343198
0.0359106
0.035839
0.0357652
0.0356894
0.0356116
0.035532
0.0354509
0.0353683
0.0352843
0.0351992
0.035113
0.035026
0.0349382
0.0348499
0.0347612
0.0346722
0.0345831
0.034494
0.034405
0.0343164
0.0359099
0.0358381
0.0357642
0.0356883
0.0356104
0.0355308
0.0354495
0.0353668
0.0352827
0.0351975
0.0351112
0.0350241
0.0349362
0.0348478
0.0347589
0.0346698
0.0345805
0.0344912
0.0344021
0.0343134
0.0359091
0.0358372
0.0357632
0.0356872
0.0356092
0.0355295
0.0354481
0.0353653
0.0352812
0.0351959
0.0351095
0.0350223
0.0349343
0.0348458
0.0347569
0.0346676
0.0345782
0.0344889
0.0343996
0.0343108
0.0359084
0.0358364
0.0357623
0.0356861
0.0356081
0.0355282
0.0354468
0.0353639
0.0352797
0.0351943
0.0351079
0.0350206
0.0349326
0.034844
0.034755
0.0346657
0.0345762
0.0344868
0.0343974
0.0343085
0.0359076
0.0358355
0.0357613
0.035685
0.0356069
0.035527
0.0354455
0.0353625
0.0352783
0.0351928
0.0351064
0.035019
0.0349309
0.0348423
0.0347532
0.0346638
0.0345743
0.0344848
0.0343954
0.0343064
0.0359068
0.0358346
0.0357603
0.0356839
0.0356057
0.0355258
0.0354442
0.0353612
0.0352769
0.0351914
0.0351049
0.0350175
0.0349294
0.0348407
0.0347516
0.0346622
0.0345726
0.0344831
0.0343936
0.0343045
0.035906
0.0358337
0.0357593
0.0356829
0.0356046
0.0355246
0.035443
0.0353599
0.0352755
0.03519
0.0351034
0.035016
0.0349279
0.0348392
0.0347501
0.0346606
0.034571
0.0344815
0.034392
0.0343029
0.0359053
0.0358329
0.0357584
0.0356819
0.0356035
0.0355234
0.0354418
0.0353587
0.0352742
0.0351887
0.0351021
0.0350147
0.0349265
0.0348378
0.0347487
0.0346592
0.0345696
0.03448
0.0343906
0.0343014
0.0359047
0.0358321
0.0357575
0.0356809
0.0356025
0.0355224
0.0354406
0.0353575
0.035273
0.0351875
0.0351009
0.0350134
0.0349253
0.0348366
0.0347474
0.034658
0.0345684
0.0344788
0.0343893
0.0343002
0.0359041
0.0358314
0.0357567
0.0356801
0.0356015
0.0355213
0.0354396
0.0353564
0.0352719
0.0351863
0.0350997
0.0350123
0.0349241
0.0348354
0.0347463
0.0346569
0.0345673
0.0344777
0.0343882
0.0342991
0.0359037
0.0358308
0.035756
0.0356792
0.0356007
0.0355204
0.0354386
0.0353553
0.0352708
0.0351852
0.0350986
0.0350112
0.0349231
0.0348344
0.0347452
0.0346559
0.0345663
0.0344768
0.0343873
0.0342982
0.0359033
0.0358303
0.0357553
0.0356785
0.0355998
0.0355195
0.0354376
0.0353543
0.0352698
0.0351842
0.0350976
0.0350102
0.0349221
0.0348334
0.0347443
0.034655
0.0345655
0.034476
0.0343866
0.0342975
0.0359029
0.0358298
0.0357547
0.0356777
0.035599
0.0355186
0.0354367
0.0353534
0.0352688
0.0351832
0.0350966
0.0350092
0.0349211
0.0348325
0.0347435
0.0346541
0.0345647
0.0344753
0.0343859
0.0342969
0.0359027
0.0358293
0.0357541
0.035677
0.0355982
0.0355177
0.0354357
0.0353524
0.0352678
0.0351822
0.0350956
0.0350083
0.0349202
0.0348316
0.0347426
0.0346534
0.034564
0.0344746
0.0343854
0.0342965
0.0359024
0.0358289
0.0357535
0.0356763
0.0355973
0.0355168
0.0354348
0.0353514
0.0352668
0.0351812
0.0350946
0.0350073
0.0349193
0.0348308
0.0347419
0.0346527
0.0345634
0.0344741
0.0343849
0.0342961
0.0359022
0.0358285
0.0357529
0.0356756
0.0355965
0.0355158
0.0354338
0.0353504
0.0352658
0.0351802
0.0350936
0.0350063
0.0349184
0.0348299
0.0347411
0.034652
0.0345628
0.0344736
0.0343845
0.0342958
0.035902
0.0358281
0.0357523
0.0356748
0.0355956
0.0355149
0.0354327
0.0353493
0.0352647
0.0351791
0.0350926
0.0350053
0.0349174
0.034829
0.0347403
0.0346513
0.0345622
0.0344731
0.0343841
0.0342955
0.0359018
0.0358276
0.0357517
0.035674
0.0355946
0.0355138
0.0354316
0.0353481
0.0352635
0.0351779
0.0350914
0.0350042
0.0349164
0.0348281
0.0347395
0.0346506
0.0345616
0.0344726
0.0343838
0.0342953
0.0359016
0.0358272
0.035751
0.0356731
0.0355936
0.0355127
0.0354304
0.0353469
0.0352622
0.0351767
0.0350902
0.0350031
0.0349153
0.0348271
0.0347386
0.0346498
0.034561
0.0344722
0.0343835
0.0342951
0.0359014
0.0358267
0.0357502
0.0356721
0.0355925
0.0355114
0.0354291
0.0353455
0.0352609
0.0351753
0.0350889
0.0350018
0.0349142
0.0348261
0.0347377
0.0346491
0.0345604
0.0344717
0.0343831
0.0342949
0.0359012
0.0358261
0.0357494
0.0356711
0.0355913
0.0355101
0.0354276
0.035344
0.0352594
0.0351738
0.0350875
0.0350005
0.0349129
0.034825
0.0347367
0.0346482
0.0345597
0.0344712
0.0343828
0.0342948
0.035901
0.0358255
0.0357485
0.0356699
0.0355899
0.0355086
0.035426
0.0353424
0.0352577
0.0351722
0.0350859
0.034999
0.0349116
0.0348237
0.0347356
0.0346473
0.0345589
0.0344706
0.0343825
0.0342947
0.0359008
0.0358249
0.0357475
0.0356687
0.0355885
0.035507
0.0354243
0.0353406
0.0352559
0.0351704
0.0350842
0.0349974
0.03491
0.0348224
0.0347344
0.0346463
0.0345581
0.03447
0.0343821
0.0342945
0.0359005
0.0358242
0.0357465
0.0356673
0.0355868
0.0355052
0.0354224
0.0353386
0.0352539
0.0351684
0.0350823
0.0349956
0.0349084
0.0348209
0.0347331
0.0346452
0.0345573
0.0344694
0.0343817
0.0342944
0.0359002
0.0358234
0.0357453
0.0356658
0.0355851
0.0355032
0.0354203
0.0353364
0.0352517
0.0351662
0.0350802
0.0349936
0.0349065
0.0348192
0.0347317
0.034644
0.0345563
0.0344687
0.0343813
0.0342942
0.0358999
0.0358226
0.035744
0.0356641
0.0355831
0.035501
0.0354179
0.035334
0.0352492
0.0351638
0.0350778
0.0349914
0.0349045
0.0348174
0.0347301
0.0346427
0.0345552
0.0344679
0.0343808
0.034294
0.0358996
0.0358216
0.0357425
0.0356622
0.0355809
0.0354986
0.0354153
0.0353313
0.0352465
0.0351612
0.0350753
0.034989
0.0349023
0.0348154
0.0347283
0.0346412
0.0345541
0.0344671
0.0343803
0.0342939
0.0358992
0.0358206
0.0357409
0.0356602
0.0355785
0.0354959
0.0354125
0.0353283
0.0352436
0.0351582
0.0350725
0.0349863
0.0348998
0.0348132
0.0347264
0.0346396
0.0345528
0.0344662
0.0343797
0.0342937
0.0358988
0.0358195
0.0357391
0.0356579
0.0355758
0.0354929
0.0354093
0.0353251
0.0352403
0.035155
0.0350693
0.0349833
0.0348971
0.0348107
0.0347243
0.0346378
0.0345514
0.0344651
0.0343791
0.0342935
0.0358984
0.0358182
0.0357372
0.0356554
0.0355729
0.0354897
0.0354058
0.0353215
0.0352367
0.0351514
0.0350659
0.0349801
0.0348941
0.034808
0.0347219
0.0346358
0.0345498
0.034464
0.0343784
0.0342932
0.0358979
0.0358168
0.035735
0.0356526
0.0355696
0.0354861
0.035402
0.0353175
0.0352326
0.0351475
0.0350621
0.0349765
0.0348908
0.034805
0.0347193
0.0346336
0.0345481
0.0344628
0.0343777
0.034293
0.0358974
0.0358152
0.0357327
0.0356496
0.035566
0.0354821
0.0353977
0.0353131
0.0352282
0.0351431
0.0350579
0.0349725
0.0348871
0.0348017
0.0347164
0.0346312
0.0345462
0.0344614
0.0343769
0.0342927
0.0358968
0.0358135
0.03573
0.0356462
0.0355621
0.0354777
0.035393
0.0353082
0.0352233
0.0351383
0.0350532
0.0349681
0.0348831
0.0347981
0.0347133
0.0346286
0.0345441
0.0344599
0.0343759
0.0342924
0.0358961
0.0358116
0.0357271
0.0356425
0.0355577
0.0354728
0.0353878
0.0353029
0.0352179
0.0351329
0.0350481
0.0349633
0.0348786
0.0347941
0.0347097
0.0346256
0.0345418
0.0344582
0.0343749
0.034292
0.0358954
0.0358096
0.0357239
0.0356383
0.0355528
0.0354674
0.0353821
0.0352969
0.0352119
0.035127
0.0350424
0.0349579
0.0348736
0.0347896
0.0347059
0.0346224
0.0345392
0.0344563
0.0343738
0.0342917
0.0358946
0.0358072
0.0357203
0.0356338
0.0355475
0.0354615
0.0353758
0.0352904
0.0352053
0.0351205
0.0350361
0.034952
0.0348682
0.0347847
0.0347016
0.0346188
0.0345364
0.0344543
0.0343726
0.0342913
0.00278958
0.00269905
0.00263329
0.00259026
0.00256385
0.00254724
0.00253554
0.0025265
0.00251931
0.00251373
0.00250955
0.0025065
0.00250421
0.00250239
0.00250085
0.00249953
0.00249842
0.00249751
0.00249694
0.00249676
0.00249661
0.00249649
0.00249641
0.00249636
0.00249635
0.00249638
0.00249644
0.00249654
0.00249666
0.0024968
0.00249694
0.0024971
0.00249727
0.00249744
0.00249761
0.00249777
0.00249791
0.00249801
0.00249808
0.00249816
0.00249826
0.00249839
0.00249852
0.00249863
0.00249871
0.00249875
0.00249875
0.00249872
0.00249866
0.00249859
0.00249855
0.00249853
0.0024985
0.00249844
0.00249834
0.0024982
0.00249803
0.00249786
0.0024977
0.00249755
0.00249739
0.00249724
0.00249709
0.00249694
0.00249681
0.00249668
0.00249656
0.00249645
0.00249636
0.00249627
0.0024962
0.00249614
0.00249609
0.00249605
0.00249603
0.00249602
0.00249602
0.00249603
0.00249604
0.00249607
0.000827807
0.000742524
8.5337e-05
0.000176791
0.000273123
0.000357641
0.00041607
0.000459179
0.000494151
0.000522949
0.00054501
0.000560272
0.000569945
0.000575717
0.000578957
0.000580462
0.000580628
0.000579705
0.00057728
0.000573152
0.000569458
0.000566567
0.000564647
0.000563799
0.000564118
0.000565673
0.000568359
0.00057203
0.000576443
0.00058136
0.000586613
0.000592127
0.000597836
0.000603684
0.000609474
0.000614816
0.000619206
0.00062226
0.000624173
0.000625927
0.000628535
0.000631962
0.000635255