/*--------------------------------*- C++ -*----------------------------------*\
  =========                 |
  \\      /  F ield         | OpenFOAM: The Open Source CFD Toolbox
   \\    /   O peration     | Website:  https://openfoam.org
    \\  /    A nd           | Version:  13
     \\/     M anipulation  |
\*---------------------------------------------------------------------------*/
FoamFile
{
    format      ascii;
    class       volScalarField;
    location    "262";
    object      nut;
}
// * * * * * * * * * * * * * * * * * * * * * * * * * * * * * * * * * * * * * //

dimensions      [0 2 -1 0 0 0 0];

internalField   nonuniform List<scalar> 
26820
(
0.000179894
0.000179697
0.000179525
0.000179375
0.000179246
0.000179134
0.000179038
0.000179894
0.000179696
0.000179524
0.000179374
0.000179244
0.000179132
0.000179036
0.000179893
0.000179695
0.000179522
0.000179372
0.000179242
0.00017913
0.000179033
0.000179893
0.000179694
0.00017952
0.000179369
0.000179239
0.000179126
0.000179029
0.000179892
0.000179692
0.000179517
0.000179366
0.000179234
0.000179121
0.000179023
0.000179891
0.00017969
0.000179514
0.000179361
0.000179228
0.000179114
0.000179015
0.00017989
0.000179687
0.000179509
0.000179355
0.000179222
0.000179106
0.000179006
0.000179889
0.000179684
0.000179504
0.000179349
0.000179214
0.000179097
0.000178996
0.000179888
0.00017968
0.000179499
0.000179341
0.000179205
0.000179087
0.000178984
0.000179887
0.000179676
0.000179492
0.000179333
0.000179194
0.000179076
0.000178971
0.000179885
0.000179672
0.000179485
0.000179324
0.000179183
0.000179063
0.000178957
0.000179884
0.000179667
0.000179478
0.000179314
0.000179171
0.000179049
0.000178941
0.000179882
0.000179661
0.000179469
0.000179303
0.000179158
0.000179034
0.000178924
0.00017988
0.000179656
0.00017946
0.000179291
0.000179144
0.000179018
0.000178905
0.000179878
0.00017965
0.000179451
0.000179278
0.000179128
0.000179001
0.000178885
0.000179876
0.000179643
0.00017944
0.000179265
0.000179112
0.000178982
0.000178865
0.000179873
0.000179636
0.00017943
0.000179251
0.000179095
0.000178963
0.000178842
0.000179871
0.000179629
0.000179418
0.000179236
0.000179077
0.000178943
0.000178819
0.000179868
0.000179621
0.000179406
0.00017922
0.000179059
0.000178921
0.000178796
0.000179865
0.000179613
0.000179394
0.000179203
0.000179039
0.000178898
0.000178773
0.000178952
0.000178874
0.000178808
0.000178757
0.00017872
0.0001787
0.000178702
0.000178734
0.000178816
0.000167233
0.000136735
0.000111883
9.16234e-05
7.50606e-05
6.15148e-05
5.0438e-05
4.13789e-05
3.39683e-05
2.79058e-05
2.29457e-05
1.88889e-05
1.55656e-05
1.28297e-05
1.05767e-05
8.72306e-06
7.19975e-06
5.94944e-06
4.92461e-06
4.08604e-06
3.40147e-06
2.84474e-06
2.39492e-06
2.03743e-06
1.76067e-06
1.58366e-06
1.46888e-06
1.42436e-06
1.25689e-06
8.26168e-08
1.28169e-09
0.00017895
0.000178872
0.000178807
0.000178756
0.000178719
0.000178699
0.0001787
0.000178733
0.000178815
0.000167737
0.000137158
0.000112223
9.18922e-05
7.52732e-05
6.1684e-05
5.05734e-05
4.14877e-05
3.40564e-05
2.79777e-05
2.30047e-05
1.89377e-05
1.56067e-05
1.28644e-05
1.06063e-05
8.74839e-06
7.22153e-06
5.96825e-06
4.94095e-06
4.10029e-06
3.41395e-06
2.85574e-06
2.40466e-06
2.04608e-06
1.76839e-06
1.59024e-06
1.47403e-06
1.42686e-06
1.25541e-06
8.21421e-08
1.27915e-09
0.000178947
0.000178869
0.000178804
0.000178753
0.000178717
0.000178697
0.000178698
0.000178731
0.000178813
0.000167859
0.00013725
0.000112293
9.19464e-05
7.53168e-05
6.17201e-05
5.06042e-05
4.15147e-05
3.40803e-05
2.79991e-05
2.30241e-05
1.89553e-05
1.56228e-05
1.28793e-05
1.06199e-05
8.76082e-06
7.23286e-06
5.97855e-06
4.9503e-06
4.10879e-06
3.42169e-06
2.8628e-06
2.41111e-06
2.05196e-06
1.77376e-06
1.59478e-06
1.4773e-06
1.42794e-06
1.25469e-06
8.18305e-08
1.2779e-09
0.000178943
0.000178865
0.000178801
0.00017875
0.000178714
0.000178694
0.000178696
0.000178729
0.000178811
0.000167857
0.00013725
0.000112297
9.19567e-05
7.53309e-05
6.17367e-05
5.06223e-05
4.15335e-05
3.40993e-05
2.80178e-05
2.30423e-05
1.89726e-05
1.56392e-05
1.28946e-05
1.0634e-05
8.77369e-06
7.24451e-06
5.98904e-06
4.95971e-06
4.11721e-06
3.42923e-06
2.86956e-06
2.41721e-06
2.05746e-06
1.7788e-06
1.59909e-06
1.48069e-06
1.42996e-06
1.25602e-06
8.14384e-08
1.27635e-09
0.000178937
0.00017886
0.000178796
0.000178746
0.00017871
0.000178691
0.000178693
0.000178727
0.000178809
0.00016805
0.000137416
0.000112442
9.20827e-05
7.54406e-05
6.18323e-05
5.07057e-05
4.16064e-05
3.41632e-05
2.80739e-05
2.30915e-05
1.90159e-05
1.56776e-05
1.29285e-05
1.06639e-05
8.79991e-06
7.26744e-06
6.00906e-06
4.97719e-06
4.13247e-06
3.44258e-06
2.88128e-06
2.42755e-06
2.06667e-06
1.78725e-06
1.60657e-06
1.48734e-06
1.4357e-06
1.26078e-06
8.08182e-08
1.27374e-09
0.00017893
0.000178854
0.00017879
0.00017874
0.000178705
0.000178687
0.00017869
0.000178724
0.000178807
0.000168273
0.000137611
0.000112611
9.2231e-05
7.557e-05
6.19455e-05
5.0805e-05
4.16936e-05
3.42398e-05
2.81413e-05
2.31509e-05
1.90681e-05
1.57241e-05
1.29698e-05
1.07003e-05
8.83187e-06
7.29541e-06
6.03348e-06
4.99846e-06
4.15101e-06
3.45876e-06
2.89543e-06
2.44002e-06
2.07777e-06
1.79754e-06
1.61577e-06
1.49574e-06
1.44346e-06
1.26704e-06
7.99251e-08
1.26987e-09
0.000178922
0.000178846
0.000178783
0.000178734
0.0001787
0.000178682
0.000178685
0.00017872
0.000178804
0.000168497
0.000137808
0.000112786
9.23859e-05
7.57073e-05
6.20671e-05
5.09129e-05
4.17893e-05
3.43247e-05
2.82165e-05
2.32177e-05
1.91272e-05
1.57769e-05
1.30168e-05
1.07419e-05
8.86848e-06
7.32749e-06
6.06149e-06
5.02286e-06
4.17224e-06
3.47723e-06
2.91156e-06
2.45419e-06
2.09037e-06
1.80928e-06
1.62631e-06
1.50542e-06
1.4526e-06
1.27419e-06
7.87572e-08
1.26474e-09
0.000178912
0.000178837
0.000178775
0.000178727
0.000178693
0.000178676
0.00017868
0.000178716
0.000178802
0.000168744
0.000138028
0.000112982
9.25607e-05
7.58631e-05
6.22059e-05
5.10364e-05
4.18991e-05
3.44223e-05
2.83033e-05
2.32948e-05
1.91955e-05
1.5838e-05
1.30712e-05
1.07901e-05
8.9109e-06
7.36466e-06
6.09393e-06
5.0511e-06
4.19677e-06
3.49855e-06
2.93013e-06
2.47048e-06
2.10485e-06
1.82281e-06
1.63848e-06
1.51661e-06
1.46332e-06
1.28249e-06
7.73265e-08
1.2584e-09
0.0001789
0.000178826
0.000178766
0.000178718
0.000178686
0.000178669
0.000178675
0.000178712
0.000178798
0.000169021
0.000138275
0.000113202
9.27584e-05
7.60396e-05
6.23634e-05
5.11769e-05
4.20243e-05
3.45337e-05
2.84024e-05
2.33829e-05
1.92736e-05
1.5908e-05
1.31335e-05
1.08453e-05
8.95952e-06
7.40727e-06
6.13113e-06
5.08348e-06
4.22491e-06
3.52299e-06
2.95141e-06
2.48916e-06
2.12148e-06
1.83841e-06
1.65254e-06
1.52957e-06
1.47583e-06
1.29222e-06
7.56493e-08
1.25094e-09
0.000178888
0.000178815
0.000178755
0.000178709
0.000178677
0.000178662
0.000178669
0.000178707
0.000178795
0.000169326
0.000138548
0.000113447
9.29776e-05
7.62357e-05
6.25388e-05
5.13335e-05
4.21641e-05
3.46583e-05
2.85134e-05
2.34817e-05
1.93613e-05
1.59866e-05
1.32037e-05
1.09075e-05
9.01436e-06
7.45537e-06
6.17316e-06
5.1201e-06
4.25675e-06
3.55067e-06
2.97554e-06
2.51035e-06
2.14038e-06
1.85621e-06
1.66862e-06
1.54439e-06
1.49025e-06
1.30356e-06
7.37426e-08
1.24247e-09
0.000178874
0.000178802
0.000178744
0.000178699
0.000178668
0.000178654
0.000178662
0.000178701
0.000178791
0.000169659
0.000138846
0.000113714
9.32182e-05
7.64514e-05
6.27319e-05
5.15063e-05
4.23185e-05
3.47962e-05
2.86363e-05
2.35913e-05
1.94588e-05
1.60741e-05
1.32819e-05
1.09769e-05
9.07556e-06
7.5091e-06
6.22015e-06
5.16106e-06
4.2924e-06
3.5817e-06
3.00263e-06
2.53419e-06
2.16168e-06
1.87636e-06
1.68683e-06
1.5612e-06
1.5067e-06
1.31671e-06
7.16227e-08
1.23308e-09
0.000178859
0.000178788
0.000178731
0.000178688
0.000178658
0.000178646
0.000178655
0.000178695
0.000178787
0.000170018
0.00013917
0.000114006
9.34807e-05
7.66869e-05
6.29431e-05
5.16955e-05
4.24878e-05
3.49475e-05
2.87714e-05
2.37118e-05
1.9566e-05
1.61706e-05
1.33682e-05
1.10536e-05
9.14331e-06
7.56865e-06
6.27228e-06
5.20657e-06
4.33206e-06
3.61626e-06
3.03284e-06
2.56083e-06
2.18556e-06
1.89904e-06
1.70733e-06
1.58012e-06
1.52531e-06
1.33187e-06
6.93046e-08
1.22287e-09
0.000178842
0.000178773
0.000178718
0.000178676
0.000178648
0.000178636
0.000178647
0.000178689
0.000178782
0.000170405
0.00013952
0.000114322
9.37652e-05
7.69425e-05
6.31725e-05
5.19013e-05
4.2672e-05
3.51123e-05
2.89188e-05
2.38435e-05
1.96833e-05
1.62763e-05
1.34629e-05
1.11378e-05
9.21781e-06
7.63419e-06
6.32973e-06
5.25679e-06
4.37588e-06
3.65452e-06
3.06635e-06
2.59044e-06
2.21219e-06
1.92443e-06
1.73028e-06
1.60129e-06
1.54626e-06
1.3494e-06
6.68021e-08
1.21193e-09
0.000178825
0.000178757
0.000178703
0.000178663
0.000178636
0.000178626
0.000178638
0.000178683
0.000178778
0.000170819
0.000139896
0.000114661
9.40718e-05
7.72183e-05
6.34202e-05
5.21236e-05
4.28714e-05
3.52909e-05
2.90786e-05
2.39864e-05
1.98108e-05
1.63908e-05
1.3566e-05
1.12298e-05
9.29924e-06
7.70595e-06
6.39271e-06
5.31192e-06
4.42408e-06
3.69667e-06
3.10334e-06
2.62321e-06
2.24175e-06
1.95275e-06
1.75585e-06
1.62486e-06
1.56971e-06
1.36988e-06
6.4135e-08
1.20039e-09
0.000178806
0.00017874
0.000178688
0.000178649
0.000178624
0.000178616
0.00017863
0.000178676
0.000178773
0.000171258
0.000140296
0.000115024
9.44004e-05
7.75142e-05
6.36863e-05
5.23626e-05
4.30858e-05
3.54831e-05
2.92508e-05
2.41407e-05
1.99486e-05
1.65142e-05
1.36774e-05
1.13295e-05
9.38782e-06
7.78411e-06
6.46143e-06
5.37217e-06
4.47684e-06
3.7429e-06
3.14402e-06
2.65935e-06
2.27447e-06
1.98425e-06
1.78423e-06
1.6511e-06
1.59587e-06
1.30696e-06
6.12793e-08
1.18829e-09
0.000178786
0.000178721
0.000178671
0.000178634
0.000178611
0.000178605
0.00017862
0.000178669
0.000178769
0.000171723
0.000140722
0.000115411
9.47508e-05
7.78301e-05
6.39707e-05
5.26183e-05
4.33154e-05
3.56892e-05
2.94356e-05
2.43064e-05
2.0097e-05
1.66469e-05
1.37974e-05
1.14373e-05
9.48371e-06
7.86892e-06
6.53611e-06
5.43777e-06
4.5344e-06
3.79346e-06
3.18861e-06
2.69907e-06
2.31058e-06
2.01921e-06
1.81565e-06
1.68024e-06
1.625e-06
1.23991e-06
5.82341e-08
1.17565e-09
0.000178765
0.000178702
0.000178654
0.000178619
0.000178598
0.000178593
0.000178611
0.000178661
0.000178764
0.000172214
0.000141173
0.000115821
9.5123e-05
7.81661e-05
6.42734e-05
5.28907e-05
4.35603e-05
3.59092e-05
2.96331e-05
2.44836e-05
2.0256e-05
1.67893e-05
1.39262e-05
1.15531e-05
9.58713e-06
7.9606e-06
6.61701e-06
5.50897e-06
4.59702e-06
3.84858e-06
3.23736e-06
2.74264e-06
2.35035e-06
2.05792e-06
1.85036e-06
1.71249e-06
1.65737e-06
1.17022e-06
5.50152e-08
1.16253e-09
0.000178742
0.000178682
0.000178636
0.000178603
0.000178584
0.000178581
0.000178601
0.000178654
0.00017876
0.000172729
0.000141648
0.000116255
9.5517e-05
7.85221e-05
6.45944e-05
5.31798e-05
4.38204e-05
3.61431e-05
2.98434e-05
2.46726e-05
2.04257e-05
1.69414e-05
1.4064e-05
1.16774e-05
9.69829e-06
8.05939e-06
6.70439e-06
5.58605e-06
4.66496e-06
3.90854e-06
3.29055e-06
2.79033e-06
2.39408e-06
2.1009e-06
1.8887e-06
1.74808e-06
1.6933e-06
1.09874e-06
5.16479e-08
1.14907e-09
0.00017872
0.000178661
0.000178617
0.000178586
0.000178569
0.000178569
0.00017859
0.000178646
0.000178755
0.000173269
0.000142148
0.000116712
9.59326e-05
7.88979e-05
6.49336e-05
5.34856e-05
4.40958e-05
3.6391e-05
3.00665e-05
2.48733e-05
2.06064e-05
1.71036e-05
1.42112e-05
1.18103e-05
9.81745e-06
8.16555e-06
6.79853e-06
5.66929e-06
4.73852e-06
3.97364e-06
3.34848e-06
2.84246e-06
2.44215e-06
2.14732e-06
1.93083e-06
1.7873e-06
1.73314e-06
1.02623e-06
4.81609e-08
1.13546e-09
0.000178697
0.000178639
0.000178598
0.000178569
0.000178554
0.000178556
0.00017858
0.000178638
0.000178751
0.000173834
0.000142672
0.000117191
9.63696e-05
7.92936e-05
6.5291e-05
5.38081e-05
4.43865e-05
3.6653e-05
3.03025e-05
2.5086e-05
2.07981e-05
1.7276e-05
1.43681e-05
1.19522e-05
9.94491e-06
8.27938e-06
6.89972e-06
5.75901e-06
4.81802e-06
4.04421e-06
3.41149e-06
2.89939e-06
2.49499e-06
2.19723e-06
1.97691e-06
1.83045e-06
1.77735e-06
9.53334e-07
4.45847e-08
1.1219e-09
0.000178668
0.000178619
0.000178578
0.000178552
0.000178539
0.000178543
0.000178569
0.00017863
0.000178747
0.000174423
0.00014322
0.000117694
9.68281e-05
7.9709e-05
6.56666e-05
5.41472e-05
4.46925e-05
3.6929e-05
3.05516e-05
2.53108e-05
2.10009e-05
1.74587e-05
1.45348e-05
1.21033e-05
1.0081e-05
8.40118e-06
7.0083e-06
5.85555e-06
4.90382e-06
4.12062e-06
3.47997e-06
2.96152e-06
2.55306e-06
2.2511e-06
2.02717e-06
1.87788e-06
1.8265e-06
8.80616e-07
4.09453e-08
1.10863e-09
0.000178638
0.000178596
0.000178558
0.000178534
0.000178523
0.000178529
0.000178558
0.000178623
0.000178743
0.000175039
0.000143793
0.000118219
9.73077e-05
8.0144e-05
6.60602e-05
5.45029e-05
4.50138e-05
3.72192e-05
3.08137e-05
2.55476e-05
2.12151e-05
1.7652e-05
1.47117e-05
1.22641e-05
1.0226e-05
8.5313e-06
7.1246e-06
5.95927e-06
4.9963e-06
4.20327e-06
3.55433e-06
3.02931e-06
2.61689e-06
2.30948e-06
2.08197e-06
1.92997e-06
1.88135e-06
8.08698e-07
3.73006e-08
1.09575e-09
0.00017861
0.000178572
0.000178538
0.000178515
0.000178507
0.000178516
0.000178547
0.000178615
0.000178739
0.00017568
0.00014439
0.000118767
9.78085e-05
8.05985e-05
6.64718e-05
5.48752e-05
4.53503e-05
3.75235e-05
3.10889e-05
2.57967e-05
2.14407e-05
1.78561e-05
1.48991e-05
1.24347e-05
1.03803e-05
8.67008e-06
7.249e-06
6.07056e-06
5.09588e-06
4.2926e-06
3.63505e-06
3.10326e-06
2.68714e-06
2.37299e-06
2.14176e-06
1.9872e-06
1.9429e-06
7.37687e-07
3.34676e-08
1.08981e-09
0.000178582
0.000178547
0.000178516
0.000178496
0.00017849
0.000178502
0.000178536
0.000178607
0.000178736
0.000176349
0.000145012
0.000119338
9.83303e-05
8.10724e-05
6.69012e-05
5.52639e-05
4.57021e-05
3.78419e-05
3.13773e-05
2.60581e-05
2.16779e-05
1.8071e-05
1.50965e-05
1.26156e-05
1.05442e-05
8.81791e-06
7.3819e-06
6.18985e-06
5.20301e-06
4.38909e-06
3.72267e-06
3.18399e-06
2.76408e-06
2.44219e-06
2.20712e-06
2.05012e-06
2.01197e-06
6.67981e-07
2.9432e-08
1.09029e-09
0.000178554
0.000178521
0.000178494
0.000178476
0.000178473
0.000178488
0.000178525
0.0001786
0.000178734
0.000177045
0.000145659
0.000119931
9.88729e-05
8.15656e-05
6.73484e-05
5.5669e-05
4.6069e-05
3.81743e-05
3.16789e-05
2.63319e-05
2.19268e-05
1.82971e-05
1.53039e-05
1.28067e-05
1.07182e-05
8.9752e-06
7.52373e-06
6.31759e-06
5.31818e-06
4.49329e-06
3.81778e-06
3.2722e-06
2.84717e-06
2.51761e-06
2.27869e-06
2.11981e-06
2.08961e-06
5.97578e-07
2.53525e-08
1.0928e-09
0.000178525
0.000178495
0.000178471
0.000178456
0.000178456
0.000178473
0.000178514
0.000178593
0.000178732
0.00017777
0.000146331
0.000120546
9.94362e-05
8.2078e-05
6.78133e-05
5.60904e-05
4.6451e-05
3.85209e-05
3.19936e-05
2.66181e-05
2.21875e-05
1.85344e-05
1.55215e-05
1.30084e-05
1.09025e-05
9.14237e-06
7.67493e-06
6.45427e-06
5.44193e-06
4.60578e-06
3.92105e-06
3.36862e-06
2.93694e-06
2.59983e-06
2.35715e-06
2.19754e-06
2.17485e-06
5.39824e-07
2.14158e-08
1.096e-09
0.000178496
0.000178469
0.000178448
0.000178436
0.000178438
0.000178459
0.000178503
0.000178587
0.000178731
0.000178531
0.000147029
0.000121182
0.00010002
8.26094e-05
6.82957e-05
5.6528e-05
4.68479e-05
3.88814e-05
3.23215e-05
2.69168e-05
2.24601e-05
1.87832e-05
1.57496e-05
1.3221e-05
1.10976e-05
9.31985e-06
7.83598e-06
6.60042e-06
5.57485e-06
4.72723e-06
4.03326e-06
3.47443e-06
3.03425e-06
2.68958e-06
2.44329e-06
2.28444e-06
2.26766e-06
4.92525e-07
1.77678e-08
1.09982e-09
0.000178466
0.000178442
0.000178424
0.000178415
0.00017842
0.000178444
0.000178492
0.00017858
0.000178731
0.000178988
0.000147754
0.000121842
0.000100625
8.31599e-05
6.87956e-05
5.69815e-05
4.72597e-05
3.92558e-05
3.26626e-05
2.7228e-05
2.27446e-05
1.90436e-05
1.59887e-05
1.34446e-05
1.13038e-05
9.50807e-06
8.00738e-06
6.75658e-06
5.71756e-06
4.85835e-06
4.15521e-06
3.58863e-06
3.13986e-06
2.78777e-06
2.53815e-06
2.37963e-06
2.37252e-06
4.48931e-07
1.44862e-08
1.10421e-09
0.000178436
0.000178415
0.000178401
0.000178395
0.000178403
0.000178429
0.000178482
0.000178575
0.000178732
0.000179
0.000148506
0.000122527
0.00010125
8.37292e-05
6.93127e-05
5.74509e-05
4.76862e-05
3.96441e-05
3.30167e-05
2.75516e-05
2.30412e-05
1.93157e-05
1.6239e-05
1.36786e-05
1.15213e-05
9.7075e-06
8.18965e-06
6.92336e-06
5.87075e-06
4.99994e-06
4.28814e-06
3.7118e-06
3.2546e-06
2.89542e-06
2.64262e-06
2.48359e-06
2.49952e-06
4.05728e-07
1.15982e-08
1.10895e-09
0.000178405
0.000178388
0.000178377
0.000178374
0.000178385
0.000178415
0.000178471
0.00017857
0.000178734
0.000179013
0.000149282
0.000123237
0.000101897
8.43175e-05
6.98469e-05
5.79361e-05
4.81273e-05
4.0046e-05
3.33838e-05
2.78878e-05
2.33498e-05
1.95996e-05
1.65007e-05
1.3923e-05
1.17508e-05
9.91863e-06
8.38334e-06
7.10139e-06
6.03517e-06
5.1529e-06
4.43159e-06
3.84477e-06
3.37936e-06
3.01363e-06
2.75682e-06
2.59881e-06
2.6636e-06
3.617e-07
9.10072e-09
1.11367e-09
0.000178374
0.00017836
0.000178353
0.000178354
0.000178367
0.0001784
0.000178461
0.000178565
0.000178738
0.000179028
0.000150081
0.000123972
0.000102566
8.49246e-05
7.03981e-05
5.84366e-05
4.85828e-05
4.04614e-05
3.37638e-05
2.82363e-05
2.36705e-05
1.98953e-05
1.67741e-05
1.41783e-05
1.19912e-05
1.01419e-05
8.58901e-06
7.29129e-06
6.21162e-06
5.31818e-06
4.58569e-06
3.98846e-06
3.51514e-06
3.1435e-06
2.88218e-06
2.7261e-06
2.69778e-06
3.16854e-07
6.97355e-09
1.11792e-09
0.000178342
0.000178332
0.000178329
0.000178333
0.00017835
0.000178386
0.000178451
0.000178562
0.000178743
0.000179045
0.000150904
0.000124731
0.000103256
8.55506e-05
7.0966e-05
5.89525e-05
4.90523e-05
4.08901e-05
3.41565e-05
2.85972e-05
2.40032e-05
2.0203e-05
1.70593e-05
1.44449e-05
1.22423e-05
1.03773e-05
8.80745e-06
7.49405e-06
6.40098e-06
5.49483e-06
4.75109e-06
4.14397e-06
3.66294e-06
3.28628e-06
3.01986e-06
2.86762e-06
2.58966e-06
2.72064e-07
5.18831e-09
1.12112e-09
0.000178311
0.000178304
0.000178305
0.000178313
0.000178332
0.000178372
0.000178442
0.000178559
0.00017875
0.000179065
0.000151753
0.000125513
0.000103968
8.61952e-05
7.15504e-05
5.94833e-05
4.95358e-05
4.13319e-05
3.45618e-05
2.89703e-05
2.4348e-05
2.05226e-05
1.73565e-05
1.47231e-05
1.25045e-05
1.06238e-05
9.03787e-06
7.70903e-06
6.60209e-06
5.68326e-06
4.92865e-06
4.31248e-06
3.82407e-06
3.44308e-06
3.17045e-06
3.02927e-06
2.46298e-06
2.28714e-07
3.71357e-09
1.12265e-09
0.000178279
0.000178276
0.000178281
0.000178293
0.000178316
0.000178359
0.000178434
0.000178558
0.00017876
0.000179088
0.000152628
0.00012632
0.000104701
8.68584e-05
7.21511e-05
6.00288e-05
5.00329e-05
4.17866e-05
3.49794e-05
2.93555e-05
2.47047e-05
2.08542e-05
1.76657e-05
1.50131e-05
1.27781e-05
1.08814e-05
9.27963e-06
7.93573e-06
6.81519e-06
5.8843e-06
5.1194e-06
4.49525e-06
4.00012e-06
3.61479e-06
3.33417e-06
3.22323e-06
2.29483e-06
1.88239e-07
2.51802e-09
1.12187e-09
0.000178247
0.000178248
0.000178257
0.000178272
0.000178299
0.000178346
0.000178426
0.000178558
0.000178771
0.000179113
0.000153531
0.000127151
0.000105455
8.75402e-05
7.27682e-05
6.0589e-05
5.05434e-05
4.2254e-05
3.54093e-05
2.97528e-05
2.50734e-05
2.11979e-05
1.79872e-05
1.53152e-05
1.30632e-05
1.11505e-05
9.53301e-06
8.17459e-06
7.0411e-06
6.09893e-06
5.32442e-06
4.69357e-06
4.19273e-06
3.80168e-06
3.51157e-06
3.47392e-06
2.06859e-06
1.51773e-07
1.57055e-09
1.11818e-09
0.000178215
0.00017822
0.000178233
0.000178252
0.000178283
0.000178334
0.00017842
0.00017856
0.000178785
0.000179143
0.000154463
0.000128006
0.000106229
8.82388e-05
7.33997e-05
6.11622e-05
5.1066e-05
4.27329e-05
3.58504e-05
3.01611e-05
2.54531e-05
2.15527e-05
1.83202e-05
1.5629e-05
1.33599e-05
1.14312e-05
9.79855e-06
8.42617e-06
7.28029e-06
6.32771e-06
5.54464e-06
4.90882e-06
4.40334e-06
4.00295e-06
3.70514e-06
3.83165e-06
1.7847e-06
1.2002e-07
8.69535e-10
1.11127e-09
0.000178184
0.000178192
0.000178209
0.000178233
0.000178267
0.000178323
0.000178415
0.000178564
0.000178803
0.000179176
0.000155435
0.000128897
0.000107032
8.89616e-05
7.40518e-05
6.17533e-05
5.16046e-05
4.32265e-05
3.63054e-05
3.05828e-05
2.5846e-05
2.19208e-05
1.86668e-05
1.59566e-05
1.36701e-05
1.17251e-05
1.00773e-05
8.69127e-06
7.53352e-06
6.57159e-06
5.78165e-06
5.14305e-06
4.63295e-06
4.21688e-06
3.92263e-06
4.41026e-06
1.46628e-06
9.30119e-08
2.24264e-10
1.10015e-09
0.000178152
0.000178164
0.000178186
0.000178213
0.000178252
0.000178313
0.000178411
0.00017857
0.000178823
0.000179214
0.000156402
0.000129784
0.000107829
8.96797e-05
7.47e-05
6.23417e-05
5.21419e-05
4.37205e-05
3.67625e-05
3.10084e-05
2.62447e-05
2.22962e-05
1.90221e-05
1.62937e-05
1.39899e-05
1.20287e-05
1.03663e-05
8.96767e-06
7.7994e-06
6.82994e-06
6.03577e-06
5.39697e-06
4.88014e-06
4.44079e-06
4.18059e-06
5.53945e-06
1.14938e-06
7.07942e-08
2.30209e-09
1.08543e-09
0.000178121
0.000178136
0.000178162
0.000178195
0.000178238
0.000178304
0.000178408
0.000178579
0.000178848
0.000179257
0.000157525
0.000130806
0.00010873
9.0484e-05
7.54193e-05
6.29898e-05
5.27297e-05
4.42578e-05
3.7257e-05
3.14668e-05
2.66724e-05
2.26979e-05
1.94014e-05
1.66525e-05
1.43295e-05
1.23508e-05
1.06733e-05
9.26232e-06
8.08422e-06
7.10864e-06
6.31307e-06
5.6755e-06
5.14409e-06
4.67543e-06
4.5199e-06
7.56653e-06
8.68079e-07
5.31074e-08
1.90556e-09
1.06967e-09
0.00017809
0.000178109
0.00017814
0.000178176
0.000178224
0.000178295
0.000178408
0.00017859
0.000178878
0.000179304
0.000158638
0.000131826
0.000109638
9.12967e-05
7.6149e-05
6.36484e-05
5.33279e-05
4.48047e-05
3.77605e-05
3.19334e-05
2.71076e-05
2.31068e-05
1.97876e-05
1.70176e-05
1.46743e-05
1.26778e-05
1.09853e-05
9.56223e-06
8.37522e-06
7.39541e-06
6.60194e-06
5.96429e-06
5.40471e-06
4.91769e-06
5.00792e-06
6.11782e-06
6.36714e-07
3.91252e-08
1.59223e-09
1.0539e-09
0.000179863
0.000179609
0.000179387
0.000179195
0.000179028
0.000178885
0.000178762
0.000179863
0.000179609
0.000179388
0.000179195
0.000179029
0.000178885
0.00017876
0.000179863
0.000179609
0.000179388
0.000179196
0.000179029
0.000178884
0.000178759
0.000179863
0.000179609
0.000179388
0.000179196
0.000179029
0.000178884
0.000178758
0.000179863
0.000179609
0.000179388
0.000179196
0.000179029
0.000178884
0.000178758
0.000179863
0.00017961
0.000179388
0.000179196
0.000179029
0.000178884
0.000178757
0.000179863
0.00017961
0.000179388
0.000179196
0.000179029
0.000178883
0.000178757
0.000179863
0.000179609
0.000179388
0.000179196
0.000179029
0.000178883
0.000178756
0.000179863
0.000179609
0.000179388
0.000179196
0.000179028
0.000178882
0.000178755
0.000179863
0.000179609
0.000179388
0.000179195
0.000179028
0.000178882
0.000178754
0.000179863
0.000179609
0.000179388
0.000179195
0.000179027
0.000178881
0.000178754
0.000179863
0.000179609
0.000179388
0.000179195
0.000179027
0.000178881
0.000178753
0.000179863
0.000179609
0.000179387
0.000179195
0.000179027
0.00017888
0.000178752
0.000179863
0.000179609
0.000179387
0.000179194
0.000179026
0.00017888
0.000178752
0.000179863
0.000179609
0.000179387
0.000179194
0.000179026
0.000178879
0.000178752
0.000179863
0.000179609
0.000179387
0.000179194
0.000179026
0.000178879
0.000178751
0.000179863
0.000179609
0.000179387
0.000179194
0.000179026
0.000178879
0.000178751
0.000179863
0.000179609
0.000179387
0.000179194
0.000179026
0.000178879
0.000178751
0.000179863
0.000179609
0.000179387
0.000179194
0.000179026
0.000178879
0.000178751
0.000179863
0.000179609
0.000179387
0.000179194
0.000179026
0.000178879
0.000178751
0.000179863
0.000179609
0.000179387
0.000179194
0.000179026
0.000178879
0.000178751
0.000179863
0.000179609
0.000179387
0.000179194
0.000179026
0.000178879
0.000178751
0.000179863
0.000179608
0.000179387
0.000179194
0.000179026
0.000178879
0.000178751
0.000179863
0.000179608
0.000179387
0.000179194
0.000179026
0.000178879
0.000178751
0.000179863
0.000179608
0.000179387
0.000179194
0.000179026
0.000178879
0.000178751
0.000179863
0.000179608
0.000179387
0.000179194
0.000179026
0.000178879
0.000178751
0.000179863
0.000179608
0.000179387
0.000179194
0.000179026
0.000178879
0.000178751
0.000179863
0.000179608
0.000179387
0.000179194
0.000179026
0.000178879
0.000178751
0.000179863
0.000179608
0.000179387
0.000179194
0.000179026
0.000178879
0.000178751
0.000179863
0.000179608
0.000179387
0.000179194
0.000179026
0.000178879
0.000178751
0.000179863
0.000179608
0.000179387
0.000179194
0.000179026
0.000178879
0.000178751
0.000179863
0.000179608
0.000179387
0.000179194
0.000179026
0.000178879
0.000178751
0.000179863
0.000179608
0.000179387
0.000179194
0.000179026
0.000178879
0.000178751
0.000179863
0.000179608
0.000179387
0.000179194
0.000179026
0.000178879
0.000178751
0.000179863
0.000179608
0.000179387
0.000179194
0.000179026
0.000178879
0.000178751
0.000179863
0.000179608
0.000179387
0.000179194
0.000179026
0.000178879
0.000178751
0.000179863
0.000179608
0.000179387
0.000179194
0.000179026
0.000178879
0.000178751
0.000179863
0.000179608
0.000179387
0.000179194
0.000179026
0.000178879
0.000178751
0.000179863
0.000179608
0.000179387
0.000179194
0.000179026
0.000178879
0.000178751
0.000179863
0.000179608
0.000179387
0.000179194
0.000179026
0.000178879
0.000178751
0.000178691
0.000178664
0.000178637
0.000178609
0.000178579
0.000178548
0.000178517
0.000178485
0.000178452
0.000178419
0.000178385
0.000178351
0.000178316
0.000178282
0.000178247
0.000178213
0.000178178
0.000178144
0.00017811
0.000178076
0.000178688
0.00017866
0.000178631
0.000178602
0.000178571
0.000178539
0.000178507
0.000178475
0.000178442
0.000178408
0.000178374
0.00017834
0.000178306
0.000178271
0.000178236
0.000178201
0.000178166
0.000178131
0.000178097
0.000178062
0.000178686
0.000178658
0.00017863
0.0001786
0.000178569
0.000178538
0.000178506
0.000178473
0.00017844
0.000178407
0.000178373
0.000178338
0.000178303
0.000178268
0.000178233
0.000178197
0.000178162
0.000178127
0.000178091
0.000178056
0.000178685
0.000178657
0.000178628
0.000178598
0.000178567
0.000178536
0.000178504
0.000178471
0.000178437
0.000178403
0.000178369
0.000178334
0.000178299
0.000178264
0.000178228
0.000178192
0.000178156
0.00017812
0.000178085
0.000178049
0.000178684
0.000178656
0.000178627
0.000178597
0.000178566
0.000178534
0.000178502
0.000178469
0.000178435
0.000178401
0.000178367
0.000178332
0.000178296
0.000178261
0.000178225
0.000178189
0.000178153
0.000178117
0.000178081
0.000178045
0.000178684
0.000178655
0.000178626
0.000178596
0.000178565
0.000178533
0.000178501
0.000178467
0.000178434
0.000178399
0.000178365
0.000178329
0.000178294
0.000178258
0.000178222
0.000178186
0.00017815
0.000178113
0.000178077
0.000178041
0.000178683
0.000178654
0.000178625
0.000178595
0.000178564
0.000178532
0.000178499
0.000178466
0.000178432
0.000178398
0.000178363
0.000178327
0.000178292
0.000178256
0.00017822
0.000178183
0.000178147
0.00017811
0.000178074
0.000178037
0.000178682
0.000178654
0.000178624
0.000178594
0.000178562
0.00017853
0.000178498
0.000178464
0.00017843
0.000178396
0.000178361
0.000178326
0.00017829
0.000178254
0.000178218
0.000178181
0.000178144
0.000178108
0.000178071
0.000178034
0.000178681
0.000178653
0.000178623
0.000178593
0.000178561
0.000178529
0.000178496
0.000178463
0.000178429
0.000178394
0.000178359
0.000178324
0.000178288
0.000178252
0.000178216
0.000178179
0.000178142
0.000178105
0.000178069
0.000178032
0.00017868
0.000178652
0.000178622
0.000178591
0.00017856
0.000178528
0.000178495
0.000178462
0.000178428
0.000178393
0.000178358
0.000178322
0.000178287
0.00017825
0.000178214
0.000178177
0.00017814
0.000178103
0.000178067
0.00017803
0.00017868
0.000178651
0.000178621
0.00017859
0.000178559
0.000178527
0.000178494
0.000178461
0.000178426
0.000178392
0.000178357
0.000178321
0.000178285
0.000178249
0.000178212
0.000178176
0.000178139
0.000178102
0.000178065
0.000178028
0.000178679
0.00017865
0.00017862
0.00017859
0.000178558
0.000178526
0.000178493
0.000178459
0.000178425
0.000178391
0.000178355
0.00017832
0.000178284
0.000178248
0.000178211
0.000178174
0.000178137
0.0001781
0.000178063
0.000178026
0.000178678
0.000178649
0.000178619
0.000178589
0.000178557
0.000178525
0.000178492
0.000178459
0.000178424
0.00017839
0.000178354
0.000178319
0.000178283
0.000178247
0.00017821
0.000178173
0.000178136
0.000178099
0.000178062
0.000178025
0.000178678
0.000178649
0.000178619
0.000178588
0.000178557
0.000178524
0.000178491
0.000178458
0.000178424
0.000178389
0.000178354
0.000178318
0.000178282
0.000178246
0.000178209
0.000178172
0.000178135
0.000178098
0.000178061
0.000178024
0.000178677
0.000178648
0.000178618
0.000178587
0.000178556
0.000178524
0.000178491
0.000178457
0.000178423
0.000178388
0.000178353
0.000178317
0.000178281
0.000178245
0.000178208
0.000178172
0.000178135
0.000178098
0.000178061
0.000178024
0.000178677
0.000178648
0.000178618
0.000178587
0.000178555
0.000178523
0.00017849
0.000178456
0.000178422
0.000178388
0.000178352
0.000178317
0.000178281
0.000178244
0.000178208
0.000178171
0.000178134
0.000178097
0.00017806
0.000178023
0.000178677
0.000178647
0.000178617
0.000178587
0.000178555
0.000178523
0.00017849
0.000178456
0.000178422
0.000178387
0.000178352
0.000178316
0.00017828
0.000178244
0.000178207
0.000178171
0.000178134
0.000178097
0.00017806
0.000178023
0.000178676
0.000178647
0.000178617
0.000178586
0.000178555
0.000178522
0.000178489
0.000178455
0.000178421
0.000178386
0.000178351
0.000178316
0.00017828
0.000178243
0.000178207
0.00017817
0.000178133
0.000178096
0.000178059
0.000178022
0.000178676
0.000178647
0.000178617
0.000178586
0.000178554
0.000178522
0.000178489
0.000178455
0.000178421
0.000178386
0.000178351
0.000178315
0.000178279
0.000178243
0.000178206
0.00017817
0.000178133
0.000178096
0.000178059
0.000178022
0.000178676
0.000178647
0.000178617
0.000178586
0.000178554
0.000178521
0.000178488
0.000178455
0.00017842
0.000178386
0.00017835
0.000178315
0.000178279
0.000178243
0.000178206
0.000178169
0.000178133
0.000178096
0.000178059
0.000178022
0.000178676
0.000178647
0.000178616
0.000178585
0.000178553
0.000178521
0.000178488
0.000178454
0.00017842
0.000178385
0.00017835
0.000178314
0.000178278
0.000178242
0.000178206
0.000178169
0.000178132
0.000178096
0.000178059
0.000178022
0.000178676
0.000178646
0.000178616
0.000178585
0.000178553
0.000178521
0.000178487
0.000178454
0.000178419
0.000178385
0.000178349
0.000178314
0.000178278
0.000178242
0.000178205
0.000178169
0.000178132
0.000178095
0.000178059
0.000178022
0.000178676
0.000178646
0.000178616
0.000178585