/*--------------------------------*- C++ -*----------------------------------*\
  =========                 |
  \\      /  F ield         | OpenFOAM: The Open Source CFD Toolbox
   \\    /   O peration     | Website:  https://openfoam.org
    \\  /    A nd           | Version:  13
     \\/     M anipulation  |
\*---------------------------------------------------------------------------*/
FoamFile
{
    format      ascii;
    class       volScalarField;
    location    "262";
    object      omega;
}
// * * * * * * * * * * * * * * * * * * * * * * * * * * * * * * * * * * * * * //

dimensions      [0 0 -1 0 0 0 0];

internalField   nonuniform List<scalar> 
26820
(
217.229
214.525
212.19
210.172
208.425
206.909
205.594
217.227
214.519
212.18
210.159
208.409
206.892
205.574
217.223
214.506
212.16
210.133
208.378
206.856
205.534
217.216
214.487
212.13
210.094
208.331
206.804
205.473
217.207
214.461
212.09
210.042
208.269
206.733
205.393
217.196
214.429
212.041
209.978
208.191
206.646
205.293
217.183
214.391
211.981
209.9
208.099
206.541
205.173
217.168
214.346
211.912
209.811
207.991
206.42
205.034
217.15
214.295
211.833
209.708
207.868
206.282
204.877
217.131
214.239
211.745
209.594
207.731
206.128
204.7
217.109
214.176
211.648
209.468
207.58
205.957
204.506
217.085
214.107
211.542
209.33
207.415
205.771
204.293
217.06
214.033
211.427
209.181
207.236
205.57
204.063
217.032
213.954
211.303
209.02
207.044
205.353
203.817
217.003
213.868
211.171
208.849
206.84
205.123
203.553
216.971
213.778
211.031
208.667
206.622
204.878
203.275
216.938
213.682
210.883
208.475
206.393
204.619
202.98
216.904
213.582
210.727
208.273
206.152
204.347
202.671
216.867
213.476
210.564
208.062
205.899
204.062
202.348
216.829
213.366
210.393
207.839
205.635
203.757
202.018
204.394
203.261
202.258
201.378
200.614
199.966
199.434
199.021
198.731
198.577
198.581
198.78
199.227
199.999
201.201
202.985
205.558
209.212
214.358
221.551
231.667
245.477
262.618
283.732
309.99
343.128
385.71
441.617
516.952
621.672
773.244
1002.6
1378.31
2018.23
3434.09
5748.7
9490.07
37319.4
317552
2.69204e+06
204.374
203.243
202.242
201.363
200.601
199.954
199.423
199.01
198.721
198.567
198.571
198.769
199.215
199.985
201.185
202.965
205.533
209.181
214.317
221.498
231.591
245.398
262.538
283.649
309.898
343.021
385.576
441.438
516.701
621.301
772.663
1001.65
1376.56
2015.18
3424.79
5732.11
9468.89
37374.9
318609
2.69204e+06
204.336
203.208
202.211
201.335
200.576
199.931
199.402
198.992
198.705
198.552
198.558
198.757
199.205
199.976
201.177
202.958
205.528
209.177
214.314
221.497
231.588
245.405
262.561
283.69
309.961
343.108
385.69
441.582
516.876
621.504
772.877
1001.84
1376.53
2015.05
3420.41
5721.76
9460.39
37464.2
319148
2.69204e+06
204.279
203.156
202.164
201.293
200.538
199.898
199.373
198.966
198.682
198.533
198.541
198.744
199.194
199.969
201.175
202.961
205.538
209.194
214.342
221.538
231.643
245.493
262.688
283.864
310.19
343.406
386.076
442.084
517.533
622.378
774.057
1003.49
1378.81
2019.11
3422.95
5721.29
9471.5
37637.1
319714
2.69204e+06
204.203
203.087
202.101
201.237
200.488
199.853
199.333
198.931
198.651
198.506
198.518
198.725
199.18
199.96
201.171
202.964
205.548
209.215
214.375
221.587
231.708
245.608
262.865
284.111
310.52
343.837
386.638
442.821
518.513
623.706
775.904
1006.19
1382.78
2026.53
3429.44
5725.82
9496.56
37920.1
320590
2.69204e+06
204.108
203
202.024
201.167
200.425
199.797
199.283
198.887
198.613
198.473
198.49
198.702
199.163
199.948
201.166
202.967
205.56
209.238
214.413
221.645
231.783
245.746
263.083
284.422
310.94
344.391
387.364
443.777
519.792
625.457
778.371
1009.84
1388.31
2037.13
3439.66
5734.72
9535.24
38328.1
321858
2.69204e+06
203.994
202.897
201.931
201.084
200.351
199.73
199.224
198.835
198.567
198.433
198.457
198.675
199.142
199.934
201.16
202.97
205.575
209.268
214.46
221.716
231.876
245.914
263.347
284.798
311.452
345.07
388.259
444.963
521.384
627.649
781.482
1014.5
1395.45
2050.99
3453.98
5748.65
9589.23
38868.5
323534
2.69204e+06
203.863
202.777
201.823
200.987
200.264
199.653
199.155
198.774
198.514
198.387
198.418
198.643
199.118
199.919
201.154
202.976
205.594
209.304
214.517
221.801
231.989
246.116
263.661
285.245
312.059
345.878
389.327
446.381
523.297
630.292
785.253
1020.19
1404.24
2068.16
3472.46
5767.85
9659.88
39545.4
325615
2.69204e+06
203.713
202.641
201.7
200.877
200.166
199.565
199.077
198.705
198.454
198.336
198.374
198.608
199.091
199.902
201.148
202.983
205.618
209.347
214.585
221.903
232.123
246.352
264.027
285.766
312.766
346.818
390.57
448.037
525.535
633.394
789.693
1026.91
1414.7
2088.69
3495
5792.25
9748.36
40361.8
328091
2.69204e+06
203.546
202.488
201.562
200.754
200.055
199.467
198.99
198.628
198.387
198.278
198.326
198.569
199.062
199.884
201.143
202.993
205.645
209.398
214.664
222.02
232.277
246.625
264.449
286.363
313.575
347.894
391.995
449.936
528.106
636.965
794.821
1034.69
1426.88
2112.65
3521.55
5821.79
9856.05
41321.9
330953
2.69204e+06
203.361
202.32
201.411
200.618
199.934
199.359
198.894
198.544
198.313
198.214
198.273
198.526
199.031
199.865
201.138
203.004
205.678
209.456
214.754
222.154
232.454
246.936
264.929
287.041
314.492
349.112
393.607
452.086
531.022
641.022
800.659
1043.58
1440.85
2140.18
3552.15
5856.5
9984.8
42431.5
334196
2.69204e+06
203.159
202.136
201.245
200.469
199.801
199.24
198.789
198.451
198.232
198.145
198.215
198.48
198.997
199.844
201.134
203.019
205.716
209.523
214.857
222.306
232.654
247.287
265.469
287.804
315.523
350.479
395.416
454.499
534.296
645.586
807.239
1053.61
1456.69
2171.44
3586.86
5896.52
10136.9
43698.3
337820
2.69204e+06
202.941
201.937
201.066
200.309
199.658
199.112
198.676
198.351
198.145
198.071
198.153
198.431
198.961
199.824
201.13
203.037
205.759
209.598
214.973
222.477
232.878
247.685
266.078
288.658
316.672
352.002
397.43
457.187
537.947
650.68
814.598
1064.86
1474.53
2206.65
3625.81
5942.1
10315.3
45131.8
341827
2.69204e+06
202.707
201.723
200.874
200.136
199.503
198.975
198.554
198.244
198.052
197.991
198.086
198.378
198.923
199.802
201.128
203.058
205.809
209.683
215.103
222.668
233.132
248.082
266.737
289.604
317.949
353.691
399.662
460.165
541.994
656.332
822.779
1077.38
1494.48
2246.05
3669.16
5993.63
10523.8
46744.9
346223
2.69204e+06
202.458
201.496
200.669
199.952
199.339
198.829
198.424
198.13
197.953
197.907
198.016
198.323
198.884
199.781
201.128
203.083
205.865
209.779
215.248
222.879
233.419
248.486
267.434
290.637
319.357
355.555
402.124
463.449
546.459
662.577
831.833
1091.28
1516.72
2289.94
3717.13
6051.57
10764.8
48540.6
351033
2.69204e+06
202.193
201.254
200.452
199.758
199.165
198.674
198.287
198.01
197.849
197.817
197.942
198.265
198.844
199.76
201.13
203.112
205.928
209.885
215.409
223.112
233.741
248.916
268.175
291.755
320.899
357.603
404.829
467.059
551.37
669.452
841.82
1106.63
1541.42
2338.69
3769.98
6116.52
11043.4
50536
356269
2.69204e+06
201.914
201
200.222
199.552
198.981
198.51
198.142
197.883
197.739
197.724
197.865
198.205
198.802
199.74
201.134
203.147
206
210.004
215.588
223.369
234.099
249.384
268.97
292.962
322.578
359.846
407.795
471.015
556.755
677.001
852.808
1123.55
1568.81
2392.54
3827.91
6189.29
11365.7
52752.5
361946
2.69204e+06
201.621
200.732
199.981
199.336
198.788
198.338
197.99
197.75
197.623
197.626
197.785
198.143
198.76
199.721
201.142
203.187
206.08
210.135
215.785
223.652
234.495
249.898
269.832
294.267
324.403
362.292
411.035
475.342
562.649
685.274
864.874
1142.19
1599.11
2452.98
3891.57
6270.93
11739.4
55214
368080
2.69204e+06
201.313
200.452
199.73
199.11
198.587
198.159
197.832
197.611
197.504
197.525
197.702
198.08
198.718
199.703
201.153
203.233
206.17
210.281
216.002
223.962
234.93
250.464
270.772
295.683
326.382
364.953
414.569
480.066
569.091
694.327
878.11
1162.68
1632.75
2513.25
3960.24
6362.85
12173.7
57947.9
374690
2.69204e+06
201.006
200.16
199.465
198.875
198.377
197.972
197.667
197.467
197.379
197.42
197.617
198.015
198.676
199.687
201.168
203.286
206.27
210.442
216.241
224.302
235.408
251.086
271.802
297.222
328.53
367.846
418.417
485.216
576.122
704.226
892.618
1185.19
1670.21
2572.22
4033.09
6466.7
12679.5
60984.9
381800
2.69204e+06
200.618
199.887
199.204
198.631
198.158
197.779
197.497
197.318
197.251
197.312
197.53
197.95
198.635
199.674
201.188
203.346
206.383
210.62
216.504
224.674
235.931
251.769
272.932
298.901
330.863
370.986
422.601
490.826
583.791
715.043
908.516
1209.93
1711.94
2631.21
4109.89
6584.46
13270.2
64361.2
389460
2.69204e+06
200.227
199.586
198.939
198.384
197.933
197.578
197.32
197.164
197.119
197.201
197.441
197.884
198.595
199.663
201.213
203.416
206.508
210.816
216.793
225.082
236.503
252.517
274.17
300.734
333.4
374.398
427.149
496.931
592.154
726.864
925.942
1237.13
1758.35
2691.69
4190.96
6718.73
13961.8
68108.6
397528
2.69204e+06
199.843
199.259
198.663
198.132
197.702
197.372
197.139
197.006
196.984
197.088
197.351
197.818
198.556
199.657
201.245
203.495
206.647
211.033
217.109
225.529
237.128
253.336
275.541
302.741
336.162
378.103
432.091
503.576
601.273
739.783
945.051
1267.07
1810.13
2755
4277.06
6872.98
14773.9
72302.4
407691
2.69204e+06
199.463
198.916
198.373
197.875
197.467
197.16
196.952
196.844
196.846
196.974
197.26
197.753
198.52
199.655
201.284
203.585
206.802
211.271
217.457
226.019
237.811
254.235
276.975
304.926
339.172
382.131
437.463
510.809
611.218
753.911
966.025
1300.08
1866.27
2822.09
4369.27
7051.77
15728.8
77005.9
420771
2.69204e+06
199.083
198.564
198.069
197.61
197.228
196.944
196.761
196.679
196.705
196.857
197.169
197.689
198.487
199.657
201.331
203.687
206.973
211.533
217.837
226.554
238.557
255.223
278.461
307.289
342.453
386.515
443.306
518.685
622.072
769.375
989.071
1336.61
1923.14
2893.28
4468.97
7261.21
16866.8
82616.9
435965
2.69204e+06
198.699
198.206
197.755
197.336
196.983
196.724
196.567
196.511
196.563
196.74
197.078
197.627
198.457
199.666
201.387
203.802
207.164
211.822
218.255
227.14
239.372
256.311
280.023
309.838
346.027
391.288
449.665
527.267
633.927
786.321
1014.44
1377.04
1980.96
2968.94
4577.84
7508.8
18189.9
87219.9
454559
2.69204e+06
198.309
197.844
197.431
197.055
196.734
196.501
196.369
196.34
196.418
196.622
196.987
197.567
198.432
199.682
201.453
203.932
207.376
212.14
218.713
227.781
240.262
257.508
281.691
312.596
349.92
396.49
456.593
536.628
646.891
804.919
1042.41
1422.44
2040.78
3049.67
4697.93
7804.77
19765.6
90529.8
475907
2.69204e+06
197.913
197.478
197.102
196.766
196.48
196.275
196.17
196.167
196.273
196.505
196.899
197.51
198.412
199.705
201.531
204.079
207.611
212.491
219.215
228.483
241.235
258.825
283.489
315.57
354.165
402.164
464.148
546.851
661.089
825.367
1073.29
1469.28
2103.33
3136.37
4831.84
8161.15
21133.4
93386.8
498941
2.69204e+06
197.51
197.109
196.767
196.471
196.221
196.046
195.968
195.993
196.128
196.388
196.812
197.456
198.397
199.738
201.622
204.243
207.872
212.876
219.766
229.253
242.299
260.271
285.448
318.664
358.771
408.357
472.398
558.032
676.664
847.892
1107.81
1517.55
2169.29
3230.18
4983.01
8545.12
22137.5
96424.6
522713
2.69204e+06
197.102
196.735
196.429
196.172
195.958
195.814
195.764
195.818
195.982
196.272
196.727
197.407
198.389
199.78
201.727
204.428
208.16
213.301
220.37
230.096
243.465
261.859
287.592
321.903
363.803
415.127
481.421
570.284
693.784
872.784
1144.45
1567.83
2239.48
3332.62
5151.26
8870.92
22821.4
100100
546459
2.69204e+06
196.689
196.358
196.087
195.868
195.692
195.58
195.56
195.643
195.837
196.158
196.646
197.364
198.39
199.834
201.848
204.636
208.48
213.769
221.035
231.021
244.742
263.603
289.949
325.342
369.105
422.539
491.294
583.716
712.648
900.3
1182.62
1620.75
2314.96
3444.55
5320.22
9120.64
23231.8
104768
569547
2.69204e+06
196.271
195.978
195.743
195.561
195.422
195.345
195.355
195.469
195.693
196.046
196.569
197.326
198.399
199.901
201.987
204.869
208.836
214.285
221.765
232.037
246.143
265.52
292.544
329.038
374.648
430.536
502.188
598.58
733.47
929.179
1222.61
1677.12
2396.42
3565.28
5488.18
9261.22
23469.8
110690
591420
2.69204e+06
195.849
195.594
195.396
195.252
195.151
195.108
195.15
195.295
195.552
195.938
196.497
197.295
198.418
199.982
202.147
205.13
209.229
214.855
222.569
233.154
247.682
267.628
295.405
333.048
380.497
438.92
513.798
614.497
755.385
959.481
1264.96
1737.35
2485.08
3697.25
5648.41
9253.68
23709.7
118019
611556
2.69204e+06
195.424
195.209
195.049
194.942
194.878
194.871
194.946
195.123
195.412
195.833
196.431
197.273
198.449
200.08
202.329
205.423
209.666
215.484
223.454
234.383
249.375
269.949
298.564
337.428
386.739
447.74
526
631.253
778.458
991.448
1310.03
1802.5
2583.01
3843.04
5784.02
9067.71
24197.1
126787
629431
2.69204e+06
194.997
194.822
194.7
194.631
194.605
194.633
194.743
194.953
195.277
195.734
196.371
197.261
198.494
200.196
202.537
205.75
210.152
216.179
224.43
235.737
251.24
272.509
302.055
342.233
393.462
457.11
538.905
648.944
802.858
1025.52
1358.59
1873.83
2693.05
4003.66
5864.79
8702.48
25236.7
136897
644515
2.69204e+06
194.568
194.434
194.351
194.32
194.331
194.397
194.541
194.787
195.145
195.64
196.319
197.259
198.553
200.333
202.774
206.117
210.691
216.949
225.509
237.231
253.298
275.335
305.919
347.528
400.761
467.139
552.637
667.789
828.947
1062.21
1411.47
1953.01
2819.08
4175.09
5848.15
8211.25
27168.9
148108
656272
2.69204e+06
194.138
194.045
194.002
194.01
194.059
194.162
194.343
194.623
195.019
195.553
196.277
197.269
198.63
200.493
203.042
206.528
211.292
217.802
226.702
238.884
255.574
278.463
310.202
353.374
408.717
477.958
567.39
688.05
857.116
1102.12
1469.6
2042.55
2965.57
4343.35
5687.12
7725.69
30334.6
160036
664179
2.69204e+06
193.709
193.657
193.655
193.701
193.788
193.929
194.147
194.465
194.899
195.473
196.244
197.294
198.725
200.68
203.347
206.989
211.96
218.749
228.023
240.712
258.092
281.928
314.964
359.846
417.429
489.712
583.372
710.031
887.815
1145.89
1534.28
2146.27
3135.53
4479.66
5348.16
7477.24
35029.4
172159
667783
2.69204e+06
193.28
193.27
193.309
193.394
193.52
193.699
193.956
194.312
194.785
195.403
196.224
197.335
198.844
200.897
203.694
207.507
212.707
219.803
229.493
242.745
260.889
285.787
320.278
367.034
427.024
502.574
600.828
734.085
921.552
1194.27
1607.38
2269.61
3326.93
4539.44
4839.73
7797.33
41420.5
183828
666733
2.69204e+06
192.852
192.885
192.965
193.09
193.255
193.473
193.768
194.164
194.678
195.341
196.215
197.391
198.982
201.141
204.079
208.077
213.526
220.958
231.102
244.972
263.96
290.038
326.148
374.949
437.53
516.617
619.903
760.467
958.71
1248.09
1692.36
2418.77
3523.33
4463.74
4247.29
9092.23
49656.7
194481
661106
2.69206e+06
216.796
213.3
210.301
207.725
205.506
203.595
201.938
216.796
213.3
210.3
207.723
205.504
203.588
201.935
216.796
213.3
210.301
207.724
205.504
203.588
201.933
216.796
213.3
210.301
207.724
205.504
203.586
201.93
216.796
213.3
210.3
207.723
205.503
203.585
201.927
216.796
213.299
210.3
207.723
205.502
203.583
201.924
216.796
213.299
210.3
207.722
205.501
203.581
201.922
216.796
213.299
210.299
207.721
205.5
203.579
201.919
216.796
213.298
210.298
207.72
205.498
203.577
201.916
216.795
213.298
210.297
207.719
205.496
203.575
201.913
216.795
213.298
210.297
207.718
205.495
203.573
201.911
216.795
213.297
210.296
207.717
205.493
203.571
201.908
216.795
213.297
210.296
207.716
205.492
203.569
201.906
216.795
213.297
210.295
207.715
205.491
203.568
201.904
216.795
213.296
210.295
207.714
205.49
203.566
201.902
216.795
213.296
210.294
207.714
205.489
203.565
201.901
216.795
213.296
210.294
207.713
205.489
203.565
201.9
216.795
213.296
210.294
207.713
205.488
203.564
201.899
216.795
213.296
210.294
207.713
205.488
203.563
201.898
216.795
213.296
210.294
207.713
205.488
203.563
201.898
216.795
213.296
210.294
207.713
205.488
203.563
201.897
216.795
213.296
210.294
207.713
205.487
203.563
201.897
216.795
213.296
210.294
207.713
205.487
203.563
201.897
216.795
213.296
210.294
207.712
205.487
203.562
201.897
216.795
213.296
210.294
207.712
205.487
203.562
201.897
216.795
213.296
210.294
207.712
205.487
203.562
201.897
216.795
213.296
210.294
207.712
205.487
203.562
201.897
216.795
213.296
210.294
207.712
205.487
203.562
201.897
216.795
213.296
210.294
207.712
205.487
203.562
201.897
216.795
213.296
210.294
207.712
205.487
203.562
201.897
216.795
213.296
210.294
207.712
205.487
203.562
201.897
216.795
213.296
210.294
207.712
205.487
203.562
201.897
216.795
213.296
210.294
207.712
205.487
203.562
201.896
216.795
213.296
210.294
207.712
205.487
203.562
201.896
216.795
213.296
210.294
207.712
205.487
203.562
201.896
216.795
213.296
210.294
207.712
205.487
203.562
201.896
216.795
213.296
210.294
207.712
205.487
203.562
201.896
216.795
213.296
210.294
207.712
205.487
203.562
201.896
216.795
213.296
210.294
207.712
205.487
203.562
201.896
216.795
213.296
210.294
207.712
205.487
203.562
201.896
201.005
200.653
200.29
199.913
199.522
199.12
198.707
198.284
197.853
197.415
196.971
196.522
196.07
195.614
195.156
194.698
194.239
193.781
193.325
192.871
200.983
200.615
200.235
199.844
199.443
199.033
198.615
198.189
197.757
197.319
196.875
196.428
195.977
195.523
195.068
194.61
194.153
193.696
193.239
192.785
200.98
200.612
200.233
199.843
199.444
199.035
198.618
198.193
197.761
197.323
196.879
196.431
195.98
195.525
195.068
194.609
194.15
193.691
193.233
192.776
200.976
200.607
200.228
199.837
199.437
199.027
198.609
198.183
197.75
197.311
196.867
196.418
195.965
195.51
195.052
194.592
194.132
193.672
193.212
192.755
200.972
200.603
200.223
199.832
199.431
199.021
198.602
198.176
197.743
197.303
196.859
196.409
195.956
195.5
195.041
194.581
194.12
193.659
193.199
192.741
200.969
200.599
200.218
199.827
199.426
199.015
198.596
198.169
197.736
197.296
196.851
196.401
195.947
195.49
195.031
194.571
194.109
193.648
193.187
192.728
200.966
200.595
200.214
199.822
199.42
199.009
198.59
198.163
197.729
197.289
196.843
196.393
195.939
195.482
195.023
194.562
194.1
193.638
193.176
192.717
200.962
200.591
200.21
199.817
199.415
199.004
198.584
198.157
197.722
197.282
196.836
196.386
195.931
195.474
195.014
194.553
194.091
193.629
193.167
192.707
200.959
200.587
200.205
199.812
199.41
198.998
198.578
198.151
197.716
197.275
196.829
196.379
195.924
195.467
195.007
194.545
194.083
193.62
193.158
192.698
200.955
200.583
200.201
199.808
199.405
198.993
198.572
198.144
197.71
197.269
196.823
196.372
195.917
195.459
194.999
194.538
194.075
193.612
193.15
192.69
200.952
200.58
200.196
199.803
199.4
198.987
198.567
198.138
197.703
197.262
196.816
196.365
195.91
195.453
194.992
194.531
194.068
193.605
193.143
192.682
200.949
200.576
200.192
199.798
199.395
198.982
198.561
198.133
197.698
197.256
196.81
196.359
195.904
195.446
194.986
194.524
194.062
193.599
193.137
192.676
200.946
200.572
200.188
199.794
199.39
198.977
198.556
198.127
197.692
197.251
196.804
196.353
195.898
195.44
194.98
194.518
194.056
193.593
193.131
192.67
200.944
200.569
200.185
199.79
199.385
198.972
198.551
198.122
197.686
197.245
196.798
196.347
195.893
195.435
194.975
194.513
194.051
193.588
193.126
192.665
200.941
200.566
200.181
199.786
199.381
198.967
198.546
198.117
197.681
197.24
196.793
196.342
195.887
195.43
194.97
194.508
194.046
193.583
193.121
192.661
200.94
200.564
200.178
199.782
199.377
198.963
198.541
198.112
197.676
197.235
196.788
196.337
195.883
195.425
194.965
194.504
194.042
193.58
193.118
192.658
200.938
200.561
200.175
199.778
199.373
198.958
198.536
198.107
197.671
197.23
196.783
196.332
195.878
195.42
194.961
194.5
194.038
193.576
193.115
192.655
200.937
200.559
200.172
199.775
199.369
198.954
198.531
198.102
197.666
197.225
196.778
196.327
195.873
195.416
194.957
194.496
194.035
193.573
193.112
192.652
200.935
200.557
200.169
199.771
199.364
198.949
198.527
198.097
197.661
197.22
196.773
196.323
195.869
195.412
194.953
194.492
194.031
193.57
193.11
192.651
200.934
200.555
200.166
199.767
199.36
198.945
198.522
198.092
197.656
197.214
196.768
196.318
195.864
195.407
194.949
194.489
194.028
193.568
193.108
192.649
200.933
200.553
200.163
199.763
199.355
198.939
198.516
198.086
197.65
197.209
196.763
196.312
195.859
195.403
194.945
194.485
194.025
193.565
193.106
192.648
200.932
200.55
200.159
199.759
199.351
198.934
198.51
198.08
197.644
197.203
196.757
196.307
195.854
195.398
194.941
194.482
194.022
193.563
193.104
192.647
200.931
200.548
200.156
199.755
199.345
198.928
198.504
198.074
197.637
197.196
196.75
196.301
195.848
195.393
194.936
194.478
194.019
193.56
193.102
192.646
200.93
200.546
200.152
199.75
199.34
198.922
198.497
198.067
197.63
197.189
196.744
196.294
195.842
195.388
194.931
194.474
194.016
193.558
193.101
192.645
200.929
200.543
200.148
199.744
199.333
198.915
198.49
198.059
197.623
197.182
196.736
196.287
195.836
195.382
194.926
194.469
194.012
193.555
193.099
192.644
200.928
200.54
200.143
199.738
199.326
198.907
198.482
198.051
197.614
197.173
196.728
196.28
195.829
195.375
194.921
194.465
194.009
193.552
193.097
192.643
200.927
200.536
200.138
199.732
199.319
198.899
198.473
198.041
197.605
197.164
196.719
196.271
195.821
195.368
194.914
194.46
194.004
193.549
193.095
192.643
200.926
200.533
200.133
199.725
199.31
198.89
198.463
198.031
197.594
197.154
196.709
196.262
195.812
195.361
194.908
194.454
194
193.546
193.093
192.642
200.924
200.529
200.126
199.717
199.301
198.879
198.452
198.02
197.583
197.142
196.699
196.252
195.803
195.352
194.9
194.448
193.995
193.543
193.091
192.641
200.923
200.525
200.12
199.708
199.291
198.868
198.44
198.007
197.57
197.13
196.687
196.241
195.792
195.343
194.892
194.441
193.989
193.539
193.089
192.64
200.921
200.52
200.112
199.699
199.28
198.856
198.427
197.993
197.557
197.116
196.673
196.228
195.781
195.332
194.883
194.433
193.984
193.534
193.086
192.639
200.919
200.514
200.104
199.688
199.267
198.842
198.412
197.978
197.541
197.101
196.659
196.214
195.768
195.321
194.873
194.425
193.977
193.529
193.083
192.638
200.917
200.508
200.095
199.677
199.254
198.827
198.396
197.961
197.524
197.085
196.643
196.199
195.754
195.308
194.862
194.416
193.97
193.524
193.08
192.637
200.915
200.502
200.085
199.664
199.238
198.81
198.378
197.943
197.506
197.066
196.625
196.182
195.739
195.294
194.85
194.406
193.962
193.518
193.076
192.636
200.912
200.495
200.074
199.649
199.222
198.791
198.358
197.922
197.485
197.046
196.605
196.164
195.722
195.279
194.837
194.394
193.953
193.512
193.072
192.635
200.91
200.487
200.061
199.634
199.203
198.771
198.336
197.9
197.462
197.023
196.583
196.143
195.703
195.262
194.822
194.382
193.943
193.505
193.068
192.633
200.906
200.478
200.048
199.616
199.183
198.748
198.312
197.875
197.437
196.998
196.559
196.121
195.682
195.243
194.805
194.368
193.932
193.497
193.063
192.632
200.903
200.468
200.033
199.597
199.16
198.723
198.285
197.847
197.409
196.971
196.533
196.095
195.659
195.222
194.787
194.353
193.92
193.488
193.058
192.63
200.899
200.457
200.016
199.576
199.135
198.695
198.255
197.816
197.378
196.94
196.504
196.068
195.633
195.199
194.767
194.336
193.907
193.479
193.052
192.628
200.895
200.446
199.998
199.552
199.107
198.664
198.223
197.783
197.344
196.907
196.471
196.037
195.605
195.174
194.745
194.318
193.892
193.468
193.046
192.626
2.73997e+06
2.73997e+06
2.73997e+06
2.73997e+06
2.73997e+06
2.73997e+06
2.73997e+06
2.73997e+06
2.73997e+06
2.73997e+06
2.73997e+06
2.73997e+06
2.73997e+06
2.73997e+06
2.73997e+06
2.73997e+06
2.73997e+06
2.73997e+06
2.73997e+06
2.73997e+06
2.73997e+06
2.73997e+06
2.73997e+06
2.73997e+06
2.73997e+06
2.73997e+06
2.73997e+06
2.73997e+06
2.73997e+06
2.73997e+06
2.73997e+06
2.73997e+06
2.73997e+06
2.73997e+06
2.73997e+06
2.73997e+06
2.73997e+06
2.73997e+06
2.73997e+06
2.73997e+06
2.73997e+06
2.73997e+06
2.73997e+06
2.73997e+06
2.73997e+06
2.73997e+06
2.73997e+06
2.73997e+06
2.73997e+06
2.73997e+06
2.73997e+06
2.73997e+06
2.73997e+06
2.73997e+06
2.73997e+06
2.73997e+06
2.73997e+06
2.73997e+06
2.73997e+06
2.73997e+06
2.73997e+06
2.73997e+06
2.73997e+06
2.73997e+06
2.73997e+06
2.73997e+06
2.73997e+06
2.73997e+06
2.73997e+06
2.73997e+06
2.73997e+06
2.73997e+06
2.73997e+06
2.73997e+06
2.73997e+06
2.73997e+06
2.73997e+06
2.73997e+06
2.73997e+06
2.73997e+06
652735
625588
592675
562329
537212
505255
484348
471470
462472
455723
450511
446330
442834
439860
437346
435254
433540
432155
431068
430245
429575
429023
428566
428191
427967
427835
427744
427694
427690
427738
427848
428045
428371
428902
429762
431140
433261
436226
439667
442682
444473
445110
445273
445360
445446
445536
445625
445705
445683
445086
443251
440330
437148
434402
432352
430944
430012
429403
429012
428749
428564
428431
428330
428252
428190
428138
428094
428056
428022
427993
427966
427942
427921
427902
427885
427871
427859
427849
427840
427834
202081
204373
202853
198706
193344
186386
179361
173363
168563
164703
161463
158606
156018
153673
151579
149732
148110
146682
145426
144330
143373
142538
141814
141183
140449
139675
138987
138416
137965
137585
137271
137022
136840
136735
136726
136848
137141
137627
138240
138812
139182
139346
139423
139495
139579
139674
139774
139874
139955
139928
139659
139161
138583
138069
137677
137404
137216
137082
136962
136864
136782
136711
136645
136584
136525
136470
136416
136364
136314
136265
136218
136174
136131
136090
136051
136015
135980
135948
135918
135890
58359.3
66283.5
74154.3
81461
87833.2
93178.1
97297.3
100221
102120
103165
103471
103112
102150
100662
98745.4
96517
94095
91588.1
89087.9
86664.6
84366.4
82221.8
80244.3
78438
76768.6
75222.7
73815.3
72526.8
71319.8
70223
69262.4
68426.8
67692
67052.2
66503.9
66047.8
65689.6
65432.6
65262.2
65136.7
65007.2
64856.8
64706.5
64578.1
64477.8
64403.4
64350.2
64313.1
64284.5
64239.8
64139
63972.4
63772.6
63579.9
63415.3
63280.4
63168.7
63062
62951.9
62844.5
62739.3
62634.8
62530.3
62425.8
62321.4
62217.4
62114.2
62012.2
61911.9
61813.6
61717.7
61624.6
61534.6
61448
61365.1
61286
61210.7
61139.3
61072
61009
11301.4
14105.6
17877.4
22508.6
27836.7
33666.1
39739.1
45787.1
51575.8
56927.8
61716.9
65854
69277.2
71948.8
73856.7
75016.6
75471.8
75291.4
74564.4
73391.7
71878
70124
68220.2
66243.7
64252.9
62289.4
60385.7
58563.1
56830.2
55197.8
53657.3
52208.5
50859.8
49629.5
48504.2
47473.4
46533.6
45681.9
44912.8
44214.4
43570.9
42970.4
42411.2
41896.7
41428.9
41007.1
40628.5
40289.9
39986.9
39710.8
39447.2
39186.1
38929.5
38686.1
38462.5
38259.5
38073.2
37892.4
37715
37541.5
37371.5
37203.9
37038
36873.5
36710.4
36548.7
36388.8
36231.1
36075.9
35923.7
35774.9
35629.9
35489.1
35353.1
35221.9
35096
34975.6
34860.9
34752.2
34649.7
3781.3
3570.72
3680.64
4251.26
5343.47
7017.25
9296.46
12156.2
15512.3
19296.9
23401.6
27700.4
32060.4
36356.4
40464.4
44271.9
47683.8
50627.2
53053.8
54940.9
56289.7
57123.4
57483.2
57423.2
57005.3
56293.2
55348.8
54229.7
52986.7
51663.3
50294
48906.1
47523.1
46149.6
44802.4
43496.6
42243.7
41045.9
39904.2
38818.8
37788.3
36810.4
35883.7
35008.7
34186.8
33419.4
32706.9
32049
31444.6
30891.1
30383.4
29916
29484.8
29088.5
28726.2
28396.1
28091.5
27807.8
27541
27288.2
27047.2
26815.6
26591.7
26373.9
26161.1
25952.8
25748.5
25547.8
25350.7
25157.3
24967.8
24782.4
24601.6
24425.7
24254.9
24089.4
23930.4
23778.4
23633.3
23495.1
4267.96
4011.15
3684.22
3332.05
3008.58
2777.82
2711.94
2885.91
3376.72
4200.96
5386.17
6943.37
8862.44
11100.3
13627
16392
19325.5
22346.6
25370.1
28314.2
31102.7
33666.9
35952.3
37920.4
39549.2
40831.4
41773.1
42391.4
42712
42766.6
42589.5
42215.5
41678.2
41008
40232.9
39376.7
38458.3
37497.7
36512.5
35517.4
34524.9
33544.7
32584
31649.3
30746
29879
29052.6
28269.9
27533.4
26844.6
26203.8
25609.7
25060.7
24555.5
24091.7
23666
23275.5
22916.5
22584.5
22275.6
21986.3
21713.3
21454
21205.9
20967.2
20736.1
20511.2
20291.4
20075.8
19864
19655.9
19451.4
19250.8
19054.1
18861.5
18672.8
18489.5
18312.5
18141.7
17977.1
3672.41
3752.76
3789.81
3771.74
3691.31
3548.04
3350.24
3116.16
2877.9
2670.77
2533.17
2506.07
2631.67
2951.66
3477.97
4223.06
5194.3
6388.25
7784.96
9363.59
11096.4
12945.3
14864.3
16804
18715
20550.8
22269.8
23839.7
25234.9
26437.5
27437.9
28234.2
28831
29238.5
29470.9
29545.2
29480.1
29294.5
29006.6
28633.4
28190.3
27692.1
27152.7
26583.9
25997.6
25403.9
24811.4
24226.8
23655.8
23102.6
22570.6
22062.6
21580.6
21125.5
20698.8
20301.4
19932.3
19589
19268.8
18969.2
18687.7
18422.3
18171.1
17932.3
17704.1
17484.5
17271.3
17062.8
16857.6
16655
16454.7
16256.5
16060.5
15866.4
15674.1
15483.3
15294.7
15109.4
14928
14750.7
2560.38
2670.72
2785.89
2900.57
3007.56
3098.29
3163.64
3195.02
3185.99
3134.12
3041.53
2915.45
2768.5
2620.45
2492.9
2407.67
2387.44
2455.02
2633.96
2932.58
3354.67
3902.76
4574.01
5357.24
6242.43
7213.54
8249.77
9326.52
10419.1
11503
12555
13554.4
14483.5
15328.9
16080.9
16734.4
17287.1
17738
18089.2
18348.3
18525.1
18629.5
18671.1
18659.4
18602.1
18506.5
18379.4
18226.8
18054.2
17866.5
17667.8
17462.3
17254.1
17047.6
16846.9
16653
16462.4
16271.9
16081
15891.2
15704.1
15521.2
15343.8
15172.9
15008.2
14847.4
14688
14528.3
14367.4
14205.4
14042.5
13878.9
13714.7
13549
13381.2
13211.2
13039.6
12867.1
12695
12523.6
1770.83
1830.42
1896.71
1970.42
2051.75
2140.09
2233.8
2329.98
2424.42
2511.93
2586.83
2643.52
2677.12
2684.38
2664.51
2619.43
2553.84
2475.23
2394.73
2324.68
2277
2263.56
2295.73
2384.91
2534.44
2746.55
3021.51
3355.5
3744.46
4182.01
4659.87
5168.51
5697.67
6236.98
6776.53
7307.28
7821.65
8312.07
8770.46
9188.69
9563.15
9896.02
10192.1
10456.5
10693.7
10906.8
11098.3
11269.8
11422.5
11560.2
11685.1
11800
11909.1
12017.9
12130.9
12242.2
12332.6
12390.5
12418.3
12422.6
12409.9
12386.1
12356.7
12325.5
12290.7
12245.7
12187.6
12117.4
12037.1
11949
11855.3
11757.1
11653.8
11543.3
11424.8
11298.8
11166.6
11029.5
10888.8
10744.3
1294.49
1326.38
1360.47
1397.28
1437.4
1481.53
1530.41
1584.67
1644.67
1710.34
1780.98
1855.17
1930.79
2004.97
2074.42
2135.71
2185.6
2221.47
2241.62
2245.8
2235.25
2212.71
2182.29
2149.84
2121.31
2102.69
2099.74
2117.97
2160.45
2229.34
2325.95
2450.28
2601.19
2776.57
2973.65
3189.16
3419.92
3663.55
3918.35
4182.97
4454.73
4729.43
5003.2
5273.44
5538.75
5797.25
6046.14
6285.14
6516.4
6741.92
6963.24
7180.82
7394.1
7601.97
7803.9
8000.33
8190.52
8371.78
8541.48
8697.54
8840.7
8974.91