/*--------------------------------*- C++ -*----------------------------------*\
  =========                 |
  \\      /  F ield         | OpenFOAM: The Open Source CFD Toolbox
   \\    /   O peration     | Website:  https://openfoam.org
    \\  /    A nd           | Version:  13
     \\/     M anipulation  |
\*---------------------------------------------------------------------------*/
FoamFile
{
    format      ascii;
    class       volScalarField;
    location    "262";
    object      p;
}
// * * * * * * * * * * * * * * * * * * * * * * * * * * * * * * * * * * * * * //

dimensions      [0 2 -2 0 0 0 0];

internalField   nonuniform List<scalar> 
26820
(
0.944794
0.953097
0.971831
0.99822
1.02981
1.06592
1.10581
0.944373
0.952673
0.971352
0.997678
1.02918
1.06515
1.10485
0.943589
0.951845
0.970434
0.99664
1.02795
1.06367
1.10298
0.94242
0.950593
0.969056
0.995082
1.0261
1.06144
1.10015
0.940868
0.948931
0.967234
0.993018
1.02366
1.05847
1.09639
0.938939
0.94687
0.964976
0.99046
1.02062
1.05479
1.0917
0.936643
0.94442
0.962296
0.987421
1.017
1.0504
1.08611
0.933987
0.941595
0.959208
0.983916
1.01283
1.04533
1.07964
0.930982
0.93841
0.955728
0.979962
1.00812
1.03959
1.0723
0.927639
0.934879
0.951875
0.975578
1.00288
1.03321
1.06412
0.923971
0.93102
0.947668
0.970785
0.997151
1.02621
1.05513
0.919991
0.926853
0.943129
0.965603
0.990949
1.0186
1.04537
0.915714
0.922395
0.938278
0.960054
0.984301
1.01042
1.03486
0.911154
0.917668
0.933139
0.954162
0.977234
1.00169
1.02364
0.906327
0.912693
0.927733
0.94795
0.969776
0.992422
1.01177
0.90125
0.907489
0.922082
0.941443
0.961957
0.982653
0.999314
0.895939
0.902078
0.916204
0.934656
0.953794
0.972401
0.986329
0.890412
0.896487
0.910124
0.927611
0.945294
0.96166
0.972865
0.884686
0.890762
0.903928
0.920433
0.936593
0.950551
0.959056
0.878749
0.884885
0.897647
0.913291
0.928053
0.939672
0.945649
1.15227
1.20702
1.26901
1.33863
1.41602
1.50181
1.59689
1.70211
1.81853
1.94781
2.09169
2.25064
2.42556
2.61802
2.82981
3.06272
3.31866
3.59966
3.90787
4.24548
4.61472
5.01781
5.45686
5.93375
6.45004
7.00672
7.60407
8.24131
8.91633
9.62523
10.3619
11.1176
11.8802
12.6338
13.3582
14.0288
14.6154
15.0916
15.428
15.6189
1.1511
1.2058
1.26769
1.33717
1.4144
1.50002
1.59489
1.69988
1.81603
1.94503
2.08858
2.24715
2.42165
2.61362
2.82483
3.05709
3.31228
3.59242
3.89963
4.23609
4.604
5.00555
5.44281
5.91765
6.43154
6.98547
7.57963
8.21322
8.88403
9.58811
10.3193
11.0688
11.8244
12.5702
13.2861
13.9476
14.5253
14.9932
15.3214
15.484
1.14884
1.20342
1.26515
1.33438
1.41132
1.49661
1.59111
1.69567
1.81133
1.93977
2.08267
2.24051
2.41415
2.60515
2.81525
3.04623
3.29995
3.5784
3.88365
4.21786
4.58318
4.98174
5.41554
5.88638
6.39567
6.94428
7.53233
8.15889
8.82165
9.51657
10.2374
10.975
11.7175
12.4487
13.1486
13.793
14.3526
14.8017
15.1102
15.2444
1.14546
1.19982
1.26131
1.33017
1.40666
1.49145
1.58538
1.68929
1.8042
1.93178
2.07369
2.23041
2.40278
2.59231
2.80073
3.02978
3.28129
3.55719
3.85952
4.19035
4.55177
4.94582
5.37443
5.83926
6.34162
6.88225
7.4611
8.0771
8.72778
9.4089
10.114
10.834
11.5566
12.2658
12.9414
13.5595
14.0906
14.5089
14.7856
14.8898
1.14098
1.19503
1.25619
1.32456
1.40045
1.48458
1.57775
1.6808
1.79471
1.92114
2.06175
2.21699
2.38766
2.57525
2.78144
3.00794
3.25652
3.52905
3.82749
4.15384
4.5101
4.89819
5.31991
5.7768
6.27
6.80007
7.36678
7.96883
8.60354
9.26645
9.9509
10.6476
11.3439
12.0239
12.6674
13.2502
13.743
14.1197
14.3526
14.4201
1.13542
1.18908
1.24982
1.31758
1.39274
1.47604
1.56827
1.67024
1.78291
1.90792
2.04692
2.20032
2.36887
2.55405
2.75749
2.98082
3.22576
3.4941
3.78773
4.10854
4.45841
4.83913
5.25234
5.69942
6.1813
6.69833
7.25005
7.83491
8.44995
9.09044
9.74944
10.4174
11.0815
11.7256
12.3292
12.8685
13.3137
13.6388
13.8166
13.8392
1.12882
1.18198
1.24222
1.30924
1.38352
1.46584
1.55695
1.65763
1.76883
1.89214
2.02921
2.18042
2.34646
2.52877
2.72892
2.94848
3.1891
3.45247
3.74039
4.05461
4.39689
4.76887
5.172
5.60745
6.07593
6.57755
7.11155
7.67609
8.2679
8.88193
9.51091
10.1449
10.7711
11.3728
11.9295
12.4172
12.806
13.07
13.1818
13.1517
1.12117
1.17375
1.23339
1.29956
1.37283
1.45401
1.54382
1.64301
1.75249
1.87384
2.00868
2.15735
2.32049
2.49948
2.69583
2.91104
3.14666
3.40431
3.68563
3.99227
4.32582
4.68773
5.07927
5.50135
5.95445
6.43837
6.95205
7.4933
8.05851
8.64223
9.23687
9.83215
10.4148
10.968
11.471
11.8995
12.2237
12.4176
12.4531
12.3631
1.11252
1.1644
1.22337
1.28857
1.36068
1.44057
1.52891
1.6264
1.73394
1.85308
1.98539
2.13118
2.29103
2.46627
2.65833
2.86863
3.09862
3.34979
3.62369
3.92179
4.2455
4.59609
4.97459
5.38168
5.81751
6.28158
6.77248
7.28766
7.82309
8.37294
8.92918
9.48117
10.0152
10.5143
10.9572
11.3196
11.5712
11.6869
11.6368
11.4802
1.10288
1.15398
1.21217
1.2763
1.34712
1.42556
1.51225
1.60786
1.71324
1.8299
1.9594
2.10199
2.25819
2.42926
2.61655
2.8214
3.04513
3.28914
3.55481
3.84345
4.15629
4.49438
4.85849
5.24902
5.66582
6.10803
6.57388
7.0604
7.56313
8.07579
8.58992
9.09443
9.57525
10.0149
10.392
10.682
10.854
10.8839
10.7397
10.5111
1.09228
1.14251
1.19984
1.26276
1.33217
1.40902
1.4939
1.58743
1.69043
1.80437
1.93079
2.06987
2.22206
2.38855
2.57063
2.7695
2.9864
3.22258
3.47926
3.75759
4.05858
4.38304
4.7315
5.10403
5.50017
5.91868
6.35738
6.81286
7.28021
7.75269
8.22133
8.6746
9.09797
9.47361
9.77971
9.99165
10.0778
10.0155
9.76964
9.46441
1.08075
1.13002
1.18639
1.248
1.31586
1.39099
1.4739
1.56517
1.66558
1.77657
1.89964
2.0349
2.18275
2.34429
2.52071
2.71312
2.92263
3.15034
3.39733
3.66454
3.95277
4.26258
4.59421
4.94743
5.32141
5.71454
6.12418
6.54649
6.97607
7.40568
7.82585
8.22455
8.58678
8.89432
9.12494
9.25391
9.24884
9.08871
8.7348
8.34988
1.06833
1.11653
1.17187
1.23204
1.29824
1.37152
1.45229
1.54112
1.63875
1.74657
1.86603
1.9972
2.14037
2.29659
2.46695
2.65244
2.85404
3.07271
3.30933
3.56468
3.83931
4.13352
4.44726
4.77997
5.13045
5.49668
5.87558
6.26284
6.65255
7.03694
7.40605
7.74733
8.04527
8.28125
8.43261
8.47455
8.37375
8.11141
7.64411
7.17779
1.05504
1.10209
1.15632
1.21493
1.27935
1.35064
1.42914
1.51536
1.61002
1.71444
1.83005
1.95686
2.09506
2.24562
2.40953
2.58767
2.78087
2.98995
3.21561
3.45841
3.71867
3.99643
4.29132
4.60246
4.92824
5.26625
5.61294
5.96352
6.31156
6.64878
6.96466
7.24614
7.47723
7.63887
7.70793
7.65963
7.45964
7.09166
6.50694
5.95907
1.0409
1.08674
1.13976
1.1967
1.25923
1.32841
1.40448
1.48794
1.57945
1.68028
1.79182
1.91399
2.04694
2.19152
2.34863
2.51901
2.70337
2.90236
3.11651
3.34614
3.59135
3.85189
4.12709
4.41571
4.71578
5.02443
5.33768
5.65022
5.95513
6.24357
6.5045
6.72435
6.88659
6.97179
6.95633
6.81544
6.51383
6.03787
5.33319
4.70522
1.02593
1.07051
1.12225
1.17738
1.23793
1.30489
1.3784
1.45894
1.54713
1.64417
1.75142
1.86873
1.99615
2.13446
2.28443
2.44669
2.62181
2.81026
3.01238
3.2283
3.45785
3.70051
3.95529
4.2206
4.49409
4.77245
5.05125
5.32468
5.58531
5.82377
6.02848
6.18538
6.27742
6.2848
6.1834
5.94851
5.54386
4.95896
4.1332
3.42823
1.01008
1.05347
1.10381
1.15701
1.2155
1.28012
1.35095
1.42843
1.51313
1.6062
1.70896
1.8212
1.94284
2.0746
2.21714
2.37095
2.53645
2.71396
2.90362
3.10534
3.3187
3.54291
3.77666
4.01802
4.26422
4.51156
4.75514
4.98868
5.20421
5.39188
5.53958
5.63274
5.65385
5.58276
5.39486
5.06554
4.55752
3.86418
2.91758
2.14049
0.99329
1.03574
1.08447
1.13563
1.19199
1.25418
1.32218
1.39647
1.47754
1.56648
1.66457
1.77152
1.88716
2.01212
2.14695
2.29201
2.44757
2.61378
2.7906
2.97771
3.17445
3.37974
3.59197
3.80885
4.02725
4.24304
4.45087
4.644
4.81398
4.95043
5.04078
5.06998
5.02006
4.87057
4.59645
4.17333
3.56269
2.76269
1.69703
0.854626
0.975324
1.01747
1.06423
1.11326
1.16747
1.22711
1.29218
1.36316
1.44046
1.52511
1.61835
1.71982
1.82927
1.9472
2.07408
2.21012
2.35545
2.51007
2.67372
2.84587
3.02563
3.21163
3.40197
3.594
3.78424
3.96815
4.13995
4.29245
4.41673
4.50195
4.53507
4.50062
4.38022
4.15316
3.79395
3.27859
2.56717
1.66357
0.48228
-0.416654
0.956217
0.998705
1.04307
1.09
1.142
1.19898
1.26101
1.32856
1.40196
1.48218
1.57043
1.66625
1.76931
1.88003
1.99873
2.12553
2.2604
2.40315
2.55337
2.71029
2.8728
3.03925
3.20743
3.37439
3.53628
3.68817
3.8239
3.93581
4.01458
4.04895
4.02541
3.92817
3.73844
3.43536
2.993
2.38798
1.57868
0.575787
-0.716113
-1.66066
0.93813
0.979068
1.02072
1.0659
1.11563
1.16984
1.22875
1.29277
1.36215
1.43781
1.52092
1.61095
1.70745
1.81078
1.92113
2.03849
2.16269
2.29338
2.42995
2.57145
2.7165
2.86323
3.00912
3.15092
3.28443
3.40437
3.50419
3.57585
3.60963
3.59388
3.51472
3.35605
3.09875
2.7219
2.19916
1.50797
0.604714
-0.4919
-1.88796
-2.86489
0.921441
0.95783
0.997349
1.04107
1.08841
1.13976
1.19547
1.25587
1.32113
1.3921
1.46995
1.55405
1.64386
1.73965
1.84149
1.94925
2.06262
2.18109
2.30387
2.4298
2.5573
2.68422
2.8078
2.92447
3.02973
3.11797
3.18229
3.21429
3.2039
3.13914
3.00582
2.78758
2.46507
2.01737
1.41776
0.644798
-0.347518
-1.53111
-3.02425
-4.017
0.904012
0.935957
0.973513
1.01557
1.0604
1.10882
1.16126
1.21794
1.27897
1.34518
1.41765
1.4957
1.57871
1.66682
1.76003
1.85807
1.96049
2.06663
2.17552
2.28582
2.39572
2.50286
2.60421
2.69592
2.77323
2.83019
2.85962
2.8528
2.79936
2.68703
2.5014
2.22594
1.84111
1.32614
0.653908
-0.195597
-1.27122
-2.53385
-4.11508
-5.1081
0.885149
0.913722
0.949394
0.989467
1.03165
1.07708
1.12618
1.17906
1.2358
1.29713
1.36414
1.43605
1.51214
1.59249
1.67698
1.76519
1.85658
1.95033
2.04529
2.13996
2.23231
2.31977
2.39907
2.46613
2.5159
2.54219
2.53753
2.49297
2.39786
2.23976
2.00405
1.67414
1.2304
0.652316
-0.0876165
-1.00762
-2.15995
-3.49307
-5.1485
-6.13235
0.865168
0.891182
0.924927
0.962771
1.00223
1.04464
1.09032
1.13934
1.1917
1.2481
1.30955
1.37524
1.44435
1.51686
1.59254
1.67088
1.7512
1.83253
1.91358
1.99266
2.06758
2.13555
2.19309
2.2359
2.2587
2.25508
2.21734
2.13631
2.00119
1.79938
1.51618
1.13501
0.636217
-0.00026046
-0.802369
-1.78614
-3.0076
-4.40459
-6.11181
-7.08155
0.844456
0.868342
0.900061
0.935526
0.972225
1.01155
1.05376
1.09885
1.14677
1.19817
1.25402
1.31342
1.37548
1.4401
1.50694
1.57538
1.64461
1.71355
1.78076
1.84437
1.90203
1.95078
1.98694
2.00602
2.00254
1.96992
1.90026
1.78426
1.61099
1.36781
1.04
0.611128
0.0615695
-0.628099
-1.48628
-2.52653
-3.80778
-5.26196
-6.99823
-7.94621
0.82322
0.845167
0.874809
0.907794
0.941688
0.977895
1.01657
1.05768
1.10112
1.14748
1.19765
1.25073
1.3057
1.3624
1.42039
1.47893
1.53712
1.59373
1.64719
1.69551
1.73616
1.76603
1.78128
1.77724
1.74829
1.68769
1.58743
1.43812
1.22879
0.946815
0.577558
0.104832
-0.490845
-1.22808
-2.13568
-3.22474
-4.55576
-6.05412
-7.80498
-8.71923
0.801561
0.821652
0.84921
0.879639
0.910687
0.943734
0.978831
1.01593
1.05485
1.09613
1.14059
1.18731
1.23518
1.28396
1.33309
1.38178
1.42898
1.47336
1.51324
1.54648
1.57043
1.58183
1.5767
1.55025
1.49674
1.40932
1.27991
1.09911
0.85596
0.537964
0.130642
-0.381813
-1.01866
-1.7975
-2.74738
-3.87722
-5.24759
-6.77465
-8.52758
-9.39552
0.779546
0.797832
0.823306
0.851116
0.879285
0.90914
0.940628
0.973671
1.00805
1.04421
1.08296
1.12331
1.16408
1.20494
1.24527
1.28415
1.32046
1.35276
1.37925
1.39768
1.40529
1.39869
1.3738
1.32572
1.24864
1.13565
0.978666
0.76831
0.493735
0.142649
-0.299173
-0.847035
-1.51987
-2.33409
-3.31872
-4.48079
-5.87872
-7.42213
-9.16055
-9.97155
0.757239
0.773758
0.797137
0.822277
0.847544
0.874183
0.902035
0.931006
0.960818
0.991852
1.02488
1.05887
1.09256
1.12554
1.15711
1.18628
1.21182
1.23221
1.24555
1.24948
1.24115
1.21708
1.1731
1.10425
1.00467
0.867448
0.684544
0.44668
0.143185
-0.237937
-0.710566
-1.28937
-1.99283
-2.83609
-3.84762
-5.03295
-6.44692
-7.99517
-9.69922
-10.4457
0.734697
0.749476
0.770742
0.793175
0.815528
0.838933
0.863132
0.888017
0.913264
0.939171
0.966487
0.994127
1.02077
1.04593
1.06882
1.08838
1.10331
1.11199
1.11244
1.10223
1.07841
1.03745
0.975103
0.886389
0.765439
0.605397
0.398301
0.13505
-0.194784
-0.602809
-1.10247
-1.70768
-2.4363
-3.30222
-4.33274
-5.53223
-6.9515
-8.49169
-10.1405
-10.8184
0.711972
0.725028
0.744163
0.763863
0.7833
0.803458
0.823996
0.844794
0.86548
0.886276
0.907892
0.929217
0.948858
0.966271
0.980588
0.990674
0.995162
0.992368
0.980231
0.956256
0.917438
0.86019
0.780254
0.672635
0.531504
0.350093
0.120587
-0.165883
-0.519428
-0.951186
-1.47407
-2.10114
-2.84945
-3.7317
-4.77352
-5.97835
-7.39196
-8.90998
-10.483
-11.0916
0.689112
0.700458
0.717444
0.734397
0.750922
0.767826
0.784703
0.801422
0.817561
0.833269
0.849217
0.864273
0.876983
0.886734
0.89259
0.893357
0.887607
0.873592
0.849195
0.811869
0.758571
0.685688
0.588964
0.463433
0.30334
0.102048
-0.148058
-0.455556
-0.830175
-1.2825
-1.82481
-2.46927
-3.23186
-4.1242
-5.17
-6.37162
-7.7682
-9.24954
-10.7273
-11.2692
0.666164
0.675811
0.69063
0.704827
0.718456
0.732105
0.745331
0.757986
0.769602
0.780255
0.790578
0.799426
0.805284
0.807476
0.805006
0.796627
0.780858
0.755901
0.719594
0.669355
0.602121
0.514279
0.401597
0.259172
0.0813562
-0.13831
-0.407201
-0.733541
-1.12661
-1.59641
-2.15443
-2.81188
-3.58348
-4.4799
-5.52272
-6.71281
-8.08112
-9.51115
-10.8757
-11.3564
0.643172
0.651131
0.663768
0.675208
0.685961
0.696361
0.705954
0.714569
0.721696
0.727336
0.732089
0.734802
0.7339
0.728653
0.718005
0.700669
0.675119
0.639516
0.591669
0.528977
0.448373
0.346264
0.218472
0.0601855
-0.134104
-0.37064
-0.656508
-0.999554
-1.40852
-1.89273
-2.4628
-3.12899
-3.90464
-4.79943
-5.83279
-7.00335
-8.33275
-9.69676
-10.9327
-11.3597
0.620179
0.62646
0.636904
0.645589
0.6535
0.660659
0.666647
0.671252
0.673934
0.674611
0.673861
0.670524
0.662966
0.65041
0.631748
0.60566
0.570581
0.524645
0.465644
0.390971
0.297577
0.181909
0.0398642
-0.133249
-0.342769
-0.594702
-0.895787
-1.25342
-1.67576
-2.1714
-2.75009
-3.42105
-4.19606
-5.08388
-6.10188
-7.24531
-8.52609
-9.80964
-10.905
-11.2868
0.597232
0.601837
0.610085
0.616021
0.621132
0.625063
0.627484
0.628117
0.626406
0.622179
0.616002
0.606711
0.592613
0.572892
0.546392
0.511767
0.467426
0.411484
0.341726
0.25556
0.149965
0.0214497
-0.133996
-0.320919
-0.544445
-0.810297
-1.12484
-1.49498
-1.92831
-2.43264
-3.01673
-3.6887
-4.45875
-5.33469
-6.33197
-7.44123
-8.66518
-9.8546
-10.802
-11.1469
0.574376
0.577291
0.583358
0.586551
0.588913
0.58963
0.588534
0.585237
0.579196
0.570129
0.558611
0.543473
0.522957
0.496225
0.462072
0.419137
0.365808
0.300194
0.220084
0.122909
0.00569743
-0.134958
-0.302948
-0.502648
-0.738952
-1.01729
-1.34362
-1.72437
-2.16644
-2.67687
-3.26335
-3.93288
-4.69406
-5.55373
-6.52516
-7.59438
-8.75554
-9.83877
-10.636
-10.9504
0.551684
0.552857
0.556789
0.557234
0.55692
0.554438
0.549884
0.542704
0.532409
0.518571
0.501815
0.480951
0.454152
0.420575
0.378965
0.327959
0.265928
0.190987
0.100942
-0.00673603
-0.134954
-0.287023
-0.4667
-0.678176
-0.926091
-1.21555
-1.5521
-1.94162
-2.39033
-2.90445
-3.4906
-4.15454
-4.90344
-5.74294
-6.68269
-7.71045
-8.80308
-9.77064
-10.4218
-10.7093
0.529162
0.528526
0.530395
0.528079
0.525164
0.519495
0.51155
0.500532
0.486062
0.467518
0.445616
0.419144
0.386189
0.345929
0.297055
0.238211
0.167757
0.0838252
-0.0157521
-0.133455
-0.272112
-0.434926
-0.6255
-0.84782
-1.10626
-1.40558
-1.75088
-2.14748
-2.60093
-3.11658
-3.69999
-4.35559
-5.08921
-5.90561
-6.80853
-7.79641
-8.81545
-9.66386
-10.1793
-10.4377
0.867435
0.87273
0.883249
0.895542
0.905965
0.911765
0.911275
0.849307
0.852986
0.859856
0.866998
0.871358
0.870701
0.864171
0.828412
0.830406
0.833783
0.836229
0.835397
0.829581
0.818408
0.804725
0.805165
0.805399
0.803748
0.79863
0.788885
0.774801
0.778367
0.777463
0.775008
0.769998
0.761631
0.749276
0.733719
0.749594
0.747606
0.743036
0.735528
0.724993
0.711226
0.695304
0.718793
0.716025
0.709977
0.700859
0.689155
0.674976
0.659525
0.686474
0.683238
0.676348
0.666449
0.654438
0.640628
0.626225
0.653231
0.649816
0.64266
0.632691
0.621055
0.608178
0.595183
0.619693
0.616343
0.609389
0.599903
0.589132
0.577539
0.566124
0.586479
0.583372
0.576961
0.568339
0.55874
0.548617
0.538829
0.554146
0.551395
0.545735
0.538193
0.529909
0.521295
0.513073
0.523156
0.520812
0.515994
0.509612
0.502666
0.49551
0.488743
0.493855
0.491922
0.487946
0.482694
0.47701
0.471185
0.465708
0.466468
0.464917
0.461722
0.457507
0.452958
0.448311
0.443956
0.441108
0.43989
0.437378
0.434063
0.430488
0.426837
0.423421
0.41779
0.416853
0.414915
0.412355
0.409593
0.40677
0.404133
0.396458
0.395746
0.394271
0.39232
0.390212
0.388053
0.386036
0.377003
0.376469
0.375362
0.373893
0.372305
0.370672
0.369148
0.359281
0.358883
0.358056
0.356958
0.355768
0.354541
0.353396
0.343137
0.342843
0.342231
0.341416
0.340532
0.339617
0.338764
0.328406
0.328188
0.327735
0.327131
0.326475
0.325794
0.325159
0.314939
0.314779
0.314445
0.314
0.313515
0.313009
0.312539
0.302584
0.302465
0.302218
0.301888
0.301528
0.301152
0.300803
0.291219
0.291132
0.29095
0.290705
0.290439
0.290159
0.289901
0.280722
0.280657
0.280521
0.280339
0.280141
0.279931
0.279739
0.271004
0.270955
0.270854
0.270718
0.27057
0.270414
0.27027
0.261971
0.261934
0.261858
0.261755
0.261644
0.261526
0.261418
0.253565
0.253538
0.25348
0.253403
0.253319
0.253229
0.253148
0.245725
0.245704
0.24566
0.245601
0.245536
0.245467
0.245405
0.238422
0.238406
0.238372
0.238327
0.238277
0.238224
0.238176
0.231623
0.23161
0.231584
0.231549
0.23151
0.231469
0.231431
0.225328
0.225318
0.225297
0.225269
0.225239
0.225207
0.225177
0.219531
0.219523
0.219507
0.219485
0.219461
0.219435
0.219411
0.214263
0.214257
0.214244
0.214226
0.214206
0.214186
0.214167
0.209557
0.209552
0.209541
0.209526
0.20951
0.209493
0.209477
0.205486
0.205481
0.205472
0.20546
0.205446
0.205432
0.205418
0.202142
0.202138
0.20213
0.20212
0.202108
0.202096
0.202084
0.199673
0.199669
0.199662
0.199653
0.199642
0.199631
0.19962
0.198285
0.198281
0.198275
0.198266
0.198256
0.198246
0.198236
0.90326
0.883035
0.861512
0.842882
0.824774
0.805786
0.786171
0.766369
0.746488
0.726495
0.706385
0.686194
0.665958
0.645703
0.625453
0.605231
0.585061
0.564969
0.544979
0.525119
0.854097
0.831736
0.80941
0.792001
0.775832
0.758771
0.741199
0.723736
0.706447
0.689197
0.671941
0.65471
0.637532
0.620419
0.603378
0.586415
0.569539
0.552755
0.536055
0.519447
0.806161
0.786356
0.766949
0.751906
0.737854
0.722898
0.707466
0.692179
0.677092
0.66207
0.647072
0.632135
0.617287
0.602534
0.587877
0.57332
0.55887
0.544537
0.530329
0.516267
0.76131
0.744
0.726884
0.713231
0.700451
0.687041
0.673347
0.659871
0.646655
0.633577
0.620591
0.607716
0.594966
0.582334
0.569811
0.557389
0.545062
0.532823
0.520655
0.508567
0.719847
0.704961
0.690175
0.678152
0.666936
0.655324
0.643541
0.631968
0.620638
0.609452
0.598367
0.587396
0.576549
0.565822
0.555209
0.544706
0.534313
0.524028
0.513847
0.50378
0.681751
0.669095
0.656435
0.645903
0.636053
0.625945
0.615727
0.605692
0.595874
0.586196
0.576626
0.567168
0.55783
0.548605
0.539485
0.530462
0.521531
0.512686
0.503915
0.495229
0.646801
0.63613
0.62537
0.616226
0.60766
0.598951
0.590191
0.581599
0.573205
0.564953
0.556812
0.548786
0.540878
0.533084
0.525395
0.517807
0.510315
0.502915
0.495597
0.488368
0.614633
0.605672
0.596558
0.588661
0.581244
0.573756
0.566247
0.55888
0.551679
0.544603
0.537628
0.530753
0.52398
0.517305
0.51072
0.504222
0.497805
0.491467
0.485197
0.479007
0.584895
0.577394
0.569702
0.56293
0.55656
0.550167
0.543776
0.537508
0.531386
0.525379
0.519469
0.513655
0.507936
0.502311
0.496774
0.49132
0.485945
0.480646
0.475414
0.470257
0.557179
0.550901
0.544414
0.53863
0.533183
0.527738
0.522305
0.516974
0.511765
0.506657
0.501633
0.496692
0.491833
0.487055
0.482353
0.477724
0.473163
0.468671
0.464239
0.459875
0.531213
0.525968
0.520515
0.515614
0.510996
0.506395
0.501812
0.497317
0.492926
0.488625
0.484401
0.480251
0.476177
0.472176
0.468244
0.464379
0.460578
0.456838
0.453155
0.449533
0.506691
0.502309
0.497728
0.49359
0.489694
0.485819
0.481961
0.478176
0.47448
0.470861
0.467308
0.46382
0.460396
0.457036
0.453738
0.450497
0.447314
0.444186
0.44111
0.43809
0.483494
0.479845
0.476015
0.472553
0.469297
0.466064
0.462846
0.45969
0.456611
0.453598
0.450644
0.447746
0.444906
0.442122
0.439392
0.436714
0.434087
0.43151
0.428979
0.426498
0.461448
0.458414
0.455218
0.452333
0.449626
0.446939
0.444263
0.44164
0.439082
0.43658
0.434129
0.431727
0.429374
0.42707
0.424814
0.422603
0.420438
0.418317
0.416238
0.414205
0.440555
0.438048
0.435398
0.433016
0.430788
0.428576
0.426373
0.424215
0.422112
0.420058
0.418047
0.416078
0.414152
0.412269
0.410428
0.408627
0.406865
0.405143
0.403457
0.401812
0.420735
0.418669
0.416478
0.41452
0.412694
0.410881
0.409074
0.407304
0.405581
0.403901
0.402257
0.400649
0.399079
0.397545
0.396048
0.394586
0.393159
0.391767
0.390407
0.389084
0.402039
0.400348
0.398551
0.396954
0.39547
0.393997
0.392529
0.391091
0.389694
0.388332
0.387002
0.385703
0.384435
0.3832
0.381996
0.380823
0.37968
0.378567
0.377484
0.376431
0.384417
0.383037
0.381566
0.380268
0.379067
0.377874
0.376684
0.37552
0.37439
0.37329
0.372217
0.371171
0.370152
0.369161
0.368197
0.367259
0.366349
0.365465
0.364606
0.363776
0.367908
0.366788
0.365592
0.364544
0.363578
0.362618
0.361661
0.360725
0.359818
0.358937
0.358079
0.357243
0.356431
0.355642
0.354877
0.354135
0.353416
0.35272
0.352046
0.351397
0.35245
0.351544
0.350573
0.349727
0.348951
0.34818
0.347411
0.34666
0.345934
0.345229
0.344544
0.343878
0.343232
0.342606
0.342
0.341415
0.340849
0.340304
0.339778
0.339273
0.338046
0.337316
0.336531
0.335851
0.33523
0.334614
0.333999
0.333399
0.33282
0.332259
0.331715
0.331187
0.330676
0.330182
0.329706
0.329247
0.328805
0.32838
0.327972
0.327583
0.324614
0.324026
0.323391
0.322845
0.322348
0.321855
0.321363
0.320884
0.320422
0.319976
0.319543
0.319125
0.318721
0.318332
0.317958
0.317598
0.317253
0.316924
0.316609
0.316309
0.312126
0.311653
0.311141
0.310703
0.310306
0.309913
0.30952
0.309138
0.30877
0.308416
0.308073
0.307743
0.307424
0.307118
0.306825
0.306545
0.306277
0.306021
0.305779
0.305549
0.30049
0.300109
0.299696
0.299344
0.299026
0.298712
0.298398
0.298093
0.2978
0.297518
0.297246
0.296985
0.296733
0.296493
0.296263
0.296044
0.295835
0.295638
0.295451
0.295276
0.289662
0.289357
0.289024
0.288741
0.288487
0.288236
0.287985
0.287741
0.287508
0.287284
0.287069
0.286862
0.286664
0.286474
0.286294
0.286123
0.285961
0.285809
0.285665
0.285531
0.279556
0.279311
0.279042
0.278815
0.278611
0.27841
0.278209
0.278015
0.277829
0.27765
0.277479
0.277315
0.277159
0.27701
0.276868
0.276734
0.276608
0.27649
0.27638
0.276277
0.27013
0.269933
0.269717
0.269534
0.269371
0.26921
0.269049
0.268894
0.268746
0.268604
0.268468
0.268338
0.268214
0.268096
0.267985
0.267881
0.267783
0.267691
0.267606
0.267527
0.261309
0.261151
0.260978
0.26083
0.260699
0.260571
0.260442
0.260318
0.260199
0.260086
0.259978
0.259875
0.259777
0.259684
0.259597
0.259515
0.259438
0.259367
0.259301
0.259241
0.253063
0.252937
0.252798
0.25268
0.252575
0.252472
0.252369
0.25227
0.252176
0.252086
0.252
0.251918
0.251841
0.251767
0.251698
0.251634
0.251574
0.251518
0.251467
0.251421
0.245339
0.245239
0.245128
0.245033
0.24495
0.244867
0.244786
0.244707
0.244632
0.24456
0.244492
0.244427
0.244366
0.244308
0.244253
0.244203
0.244156
0.244112
0.244072
0.244036
0.238124
0.238046
0.237957
0.237882
0.237816
0.237751
0.237686
0.237623
0.237564
0.237507
0.237453
0.237402
0.237354
0.237308
0.237265
0.237225
0.237188
0.237154
0.237123
0.237095
0.23139
0.231329
0.23126
0.231201
0.231148
0.231097
0.231046
0.230997
0.23095
0.230906
0.230863
0.230823
0.230785
0.230749
0.230715
0.230684
0.230655
0.230629
0.230604
0.230582
0.225145
0.225098
0.225045
0.224999
0.224958
0.224918
0.224878
0.22484
0.224804
0.224769
0.224736
0.224705
0.224675
0.224647
0.224621
0.224596
0.224573
0.224553
0.224533
0.224516
0.219385
0.21935
0.21931
0.219275
0.219243
0.219213
0.219183
0.219153
0.219125
0.219099
0.219073
0.219049
0.219026
0.219004
0.218984
0.218965
0.218947
0.218931
0.218916
0.218902
0.214146
0.214121
0.214091
0.214065
0.214041
0.214018
0.213995
0.213973
0.213952
0.213932
0.213913
0.213894
0.213877
0.21386
0.213845
0.21383
0.213816
0.213803
0.213791
0.213781
0.20946
0.209443
0.209422
0.209403
0.209386
0.209369
0.209353
0.209337
0.209321
0.209306
0.209292
0.209278
0.209265
0.209252
0.20924
0.209229
0.209218
0.209208
0.209199
0.20919
0.205405
0.205394
0.20538
0.205367
0.205354
0.205343
0.205331
0.20532
0.205309
0.205298
0.205288
0.205278
0.205268
0.205258
0.205249
0.205241
0.205232
0.205225
0.205217
0.20521
0.202073
0.202066
0.202057
0.202049
0.20204
0.202032
0.202025
0.202017
0.202009
0.202002
0.201994
0.201987
0.20198
0.201973
0.201966
0.201959
0.201953
0.201947
0.20194
0.201934
0.199611
0.199608
0.199602
0.199597
0.199591
0.199586
0.199581
0.199576
0.19957
0.199565
0.19956
0.199554
0.199549
0.199544
0.199538
0.199533
0.199528
0.199523
0.199517
0.199512
0.198228
0.198225
0.198222
0.198218
0.198214
0.19821
0.198206
0.198202
0.198198
0.198194
0.19819
0.198186
0.198181
0.198177
0.198173
0.198168
0.198163
0.198159
0.198154
0.198149
-10.1477
-9.85166
-9.55064
-9.25347
-8.96603
-8.69019
-8.4251
-8.1691
-7.92083
-7.67959
-7.44502
-7.21677
-6.99423
-6.77667
-6.56331
-6.35353
-6.14684
-5.94284
-5.7412
-5.54155
-5.3435
-5.1467
-4.95085
-4.7557
-4.56107
-4.3668
-4.17281
-3.97903
-3.78546
-3.59222
-3.39948
-3.20749
-3.01664
-2.82738
-2.64025
-2.4559
-2.27508
-2.09863
-1.92741
-1.76234
-1.60431
-1.45417
-1.31262
-1.18026
-1.05748
-0.944466
-0.841206
-0.747478
-0.662881
-0.586857
-0.518756
-0.457891
-0.403538
-0.354945
-0.311381
-0.272166
-0.236692
-0.204423
-0.174917
-0.147804
-0.122765
-0.0995308
-0.0778785
-0.0576134
-0.0385748
-0.0206512
-0.00374052
0.0122459
0.0273761
0.0417223
0.0553412
0.0682706
0.0805722
0.0922978
0.103491
0.114203
0.124434
0.13418
0.143555
0.152678
-9.92475
-9.66821
-9.40981
-9.15168
-8.89417
-8.6387
-8.38655
-8.13856
-7.89551
-7.65816
-7.42689
-7.20157
-6.98161
-6.76625
-6.55472
-6.34644
-6.14098
-5.93803
-5.73727
-5.53836
-5.34094
-5.14469
-4.9493
-4.75454
-4.56024
-4.36626
-4.17251
-3.97893
-3.78555
-3.59246
-3.39984
-3.20797
-3.01721
-2.82802
-2.64095
-2.45664
-2.27586
-2.09942
-1.92821
-1.76313
-1.60509
-1.45491
-1.31333
-1.18092
-1.05808
-0.945
-0.841675
-0.747882
-0.663221
-0.587136
-0.51898
-0.458063
-0.403664
-0.355031
-0.311433
-0.27219
-0.236693
-0.204407
-0.174887
-0.147763
-0.122717
-0.0994778
-0.0778224
-0.0575558
-0.038517
-0.0205942
-0.00368503
0.0122993
0.0274271
0.0417706
0.0553865
0.0683128
0.0806113
0.0923338
0.103524
0.114233
0.124461
0.134205
0.143577
0.152698
-9.52769
-9.35173
-9.15688
-8.94984
-8.73098
-8.50538
-8.27838
-8.05248
-7.82844
-7.60658
-7.38722
-7.17063
-6.9569
-6.746
-6.53782
-6.3322
-6.12896
-5.92792
-5.7288
-5.53131
-5.3351
-5.13986
-4.94532
-4.7513
-4.55762
-4.36418
-4.17089
-3.97771
-3.78466
-3.59187
-3.3995
-3.20784
-3.01726
-2.82823
-2.64128
-2.45708
-2.27637
-2.09999
-1.92882
-1.76377
-1.60574
-1.45556
-1.31395
-1.18151
-1.05863
-0.945505
-0.842125
-0.748273
-0.663553
-0.587409
-0.519196
-0.458227
-0.403781
-0.355106
-0.311472
-0.2722
-0.236678
-0.204373
-0.174837
-0.147703
-0.122649
-0.0994047
-0.0777464
-0.0574787
-0.0384403
-0.0205191
-0.00361239
0.0123689
0.0274932
0.0418329
0.0554449
0.0683671
0.0806615
0.0923799
0.103566
0.114271
0.124496
0.134237
0.143605
0.152722
-8.78881
-8.70646
-8.60627
-8.49368
-8.36105
-8.20845
-8.04095
-7.8626
-7.67604
-7.48351
-7.28727
-7.08923
-6.89075
-6.69251
-6.49479
-6.29765
-6.10114
-5.90534
-5.71027
-5.51593
-5.32221
-5.129
-4.93616
-4.74357
-4.55112
-4.35872
-4.16632
-3.97391
-3.78152
-3.58929
-3.39742
-3.20618
-3.01597
-2.82725
-2.64057
-2.45659
-2.27609
-2.09987
-1.92883
-1.76389
-1.60594
-1.45582
-1.31427
-1.18185
-1.05898
-0.945846
-0.842447
-0.748567
-0.663809
-0.587624
-0.519367
-0.458355
-0.403868
-0.355156
-0.311489
-0.272188
-0.236643
-0.204319
-0.174769
-0.147625
-0.122564
-0.0993147
-0.0776543
-0.0573863
-0.0383492
-0.0204305
-0.00352706
0.0124503
0.0275702
0.0419053
0.0555125
0.0684298
0.0807193
0.0924329
0.103615
0.114315
0.124536
0.134272
0.143637
0.152751
-7.83959
-7.83355
-7.81308
-7.78121
-7.72915
-7.65411
-7.55986
-7.45052
-7.32841
-7.19402
-7.0482
-6.89282
-6.72988
-6.56089
-6.38705
-6.20927
-6.02846
-5.84549
-5.661
-5.47536
-5.28878
-5.10139
-4.91329
-4.72454
-4.53521
-4.34536
-4.15505
-3.96437
-3.77346
-3.58248
-3.39168
-3.20137
-3.01198
-2.82397
-2.6379
-2.45446
-2.27441
-2.09859
-1.9279
-1.76325
-1.60555
-1.45564
-1.31424
-1.18195
-1.05917
-0.9461
-0.84273
-0.748854
-0.664081
-0.587865
-0.519568
-0.458512
-0.40398
-0.355224
-0.311517
-0.27218
-0.236604
-0.204255
-0.174686
-0.147527
-0.122456
-0.0992009
-0.0775373
-0.0572685
-0.0382324
-0.0203165
-0.00341718
0.0125553
0.0276697
0.0419991
0.0556002
0.0685114
0.0807947
0.0925023
0.103678
0.114373
0.124588
0.13432
0.14368
0.152789
-6.88922
-6.92834
-6.95401
-6.96961
-6.97198
-6.95575
-6.92105
-6.87072
-6.807
-6.72922
-6.63633
-6.53027
-6.4135
-6.28775
-6.15361
-6.01116
-5.86121
-5.70495
-5.54334
-5.37702
-5.20659
-5.03265
-4.85578
-4.67642
-4.49492
-4.31159
-4.1267
-3.94056
-3.75346
-3.56569
-3.37757
-3.18951
-3.00201
-2.81562
-2.63099
-2.44882
-2.26987
-2.09498
-1.9251
-1.76116
-1.60404
-1.45462
-1.31363
-1.18166
-1.05912
-0.946217
-0.842962
-0.749149
-0.664397
-0.588174
-0.519854
-0.458758
-0.40417
-0.355355
-0.31159
-0.2722
-0.236578
-0.204189
-0.174589
-0.147407
-0.122319
-0.0990517
-0.0773809
-0.0571083
-0.0380715
-0.0201577
-0.00326238
0.0127046
0.0278126
0.042135
0.0557288
0.0686321
0.0809077
0.0926074
0.103775
0.114462
0.12467
0.134394
0.143748
0.152851
-6.01991
-6.09166
-6.15198
-6.19768
-6.22676
-6.24138
-6.24208
-6.22854
-6.20347
-6.16802
-6.11906
-6.05661
-5.98279
-5.89932
-5.80534
-5.69977
-5.58386
-5.45954
-5.32798
-5.18931
-5.04378
-4.89216
-4.7352
-4.57346
-4.40734
-4.23723
-4.06366
-3.8872
-3.70842
-3.52776
-3.3457
-3.16282
-2.97974
-2.79712
-2.61571
-2.43626
-2.25966
-2.08683
-1.91874
-1.75631
-1.60046
-1.45207
-1.31192
-1.18062
-1.05858
-0.946055
-0.843054
-0.7494
-0.664728
-0.588531
-0.520207
-0.459073
-0.404422
-0.355532
-0.311692
-0.272231
-0.236545
-0.204103
-0.174459
-0.147243
-0.122129
-0.0988441
-0.0771613
-0.0568813
-0.0378414
-0.0199286
-0.00303719
0.0129237
0.0280242
0.0423384
0.0559232
0.0688169
0.0810826
0.0927724
0.10393
0.114605
0.1248
0.134514
0.143859
0.152953
-5.22094
-5.30665
-5.38584
-5.45611
-5.51445
-5.56031
-5.59346