/*--------------------------------*- C++ -*----------------------------------*\
  =========                 |
  \\      /  F ield         | OpenFOAM: The Open Source CFD Toolbox
   \\    /   O peration     | Website:  https://openfoam.org
    \\  /    A nd           | Version:  13
     \\/     M anipulation  |
\*---------------------------------------------------------------------------*/
FoamFile
{
    format      ascii;
    class       surfaceScalarField;
    location    "262";
    object      phi;
}
// * * * * * * * * * * * * * * * * * * * * * * * * * * * * * * * * * * * * * //

dimensions      [0 3 -1 0 0 0 0];

internalField   nonuniform List<scalar> 
53213
(
0.000404895
-8.73819e-06
0.000412458
-7.5635e-06
0.00041899
-6.53203e-06
0.000424617
-5.62622e-06
0.000429443
-4.82675e-06
0.00043357
-4.12638e-06
-3.49141e-06
0.000437061
0.00040476
-1.73412e-05
0.0004122
-1.50039e-05
0.000418624
-1.29564e-05
0.000424156
-1.11578e-05
0.000428898
-9.56922e-06
0.000432951
-8.17855e-06
-6.91569e-06
0.000436375
0.000404485
-2.56698e-05
0.000411683
-2.22015e-05
0.000417892
-1.91652e-05
0.000423232
-1.64984e-05
0.000427805
-1.41425e-05
0.000431708
-1.20809e-05
-1.02067e-05
0.000434999
0.000404074
-3.35876e-05
0.000410908
-2.90348e-05
0.000416793
-2.5051e-05
0.000421848
-2.15527e-05
0.000426167
-1.8462e-05
0.000429845
-1.57588e-05
-1.32984e-05
0.000432937
0.000403528
-4.09586e-05
0.000409876
-3.53831e-05
0.000415332
-3.05069e-05
0.000420005
-2.62261e-05
0.000423987
-2.24438e-05
0.000427366
-1.91381e-05
-1.61249e-05
0.000430193
0.000402846
-4.76478e-05
0.000408589
-4.11266e-05
0.000413509
-3.54266e-05
0.000417707
-3.04244e-05
0.000421268
-2.60046e-05
0.000424275
-2.2145e-05
-1.86209e-05
0.000426771
0.00040203
-5.35212e-05
0.00040705
-4.61465e-05
0.000411328
-3.9705e-05
0.000414958
-3.40545e-05
0.000418015
-2.90616e-05
0.000420577
-2.47064e-05
-2.07215e-05
0.000422677
0.000401081
-5.84461e-05
0.00040526
-5.03251e-05
0.000408793
-4.32376e-05
0.000411762
-3.70237e-05
0.000414233
-3.15331e-05
0.000416277
-2.67501e-05
-2.23625e-05
0.000417918
0.000400002
-6.22912e-05
0.000403222
-5.35458e-05
0.000405906
-4.59215e-05
0.000408124
-3.92409e-05
0.000409928
-3.3338e-05
0.000411383
-2.82044e-05
-2.34804e-05
0.000412501
0.000398792
-6.49269e-05
0.00040094
-5.5694e-05
0.000402674
-4.76549e-05
0.000404049
-4.06158e-05
0.000405107
-3.43967e-05
0.000405902
-2.89988e-05
-2.40127e-05
0.000406434
0.000397455
-6.62257e-05
0.000398418
-5.66563e-05
0.0003991
-4.83375e-05
0.000399544
-4.10597e-05
0.000399778
-3.46304e-05
0.000399843
-2.90635e-05
-2.38977e-05
0.000399728
0.000395993
-6.60618e-05
0.000395658
-5.63216e-05
0.000395191
-4.78709e-05
0.000394617
-4.0485e-05
0.000393948
-3.3962e-05
0.000393215
-2.83302e-05
-2.30747e-05
0.000392392
0.000394407
-6.43119e-05
0.000392666
-5.45806e-05
0.000390953
-4.61584e-05
0.000389274
-3.88061e-05
0.000387628
-3.23158e-05
0.000386029
-2.67314e-05
-2.14847e-05
0.000384439
0.0003927
-6.08552e-05
0.000389446
-5.13263e-05
0.000386392
-4.31051e-05
0.000383525
-3.59389e-05
0.000380827
-2.96175e-05
0.000378296
-2.42008e-05
-1.90697e-05
0.000375881
0.000390875
-5.55734e-05
0.000386003
-4.64541e-05
0.000381516
-3.86185e-05
0.000377378
-3.18013e-05
0.000373556
-2.57947e-05
0.000370028
-2.06733e-05
-1.5774e-05
0.000366732
0.000388934
-4.83513e-05
0.000382342
-3.9862e-05
0.000376332
-3.26081e-05
0.000370844
-2.63129e-05
0.000365826
-2.07767e-05
0.000361237
-1.60851e-05
-1.15439e-05
0.000357007
0.000386882
-3.90764e-05
0.00037847
-3.14508e-05
0.000370848
-2.49859e-05
0.000363931
-1.93958e-05
0.000357649
-1.44946e-05
0.000351937
-1.03733e-05
-6.32864e-06
0.000346722
0.00038472
-2.76395e-05
0.000374393
-2.11241e-05
0.000365074
-1.56668e-05
0.000356653
-1.09748e-05
0.00034904
-6.88131e-06
0.000342143
-3.47661e-06
-8.01395e-08
0.000335894
0.000382451
-1.39344e-05
0.000370115
-8.78791e-06
0.000359016
-4.56722e-06
0.000349018
-9.77025e-07
0.00034001
2.12631e-06
0.000331871
4.66265e-06
7.24528e-06
0.000324546
0.00038008
2.14181e-06
0.000365639
5.65334e-06
0.000352669
8.40314e-06
0.00034101
1.0682e-05
0.000330529
1.26066e-05
0.000321081
1.41106e-05
0.000312682
1.56447e-05
0.000396267
4.07939e-05
0.000359253
3.70139e-05
0.000325674
3.35792e-05
0.000295212
3.04617e-05
0.000267579
2.76336e-05
0.00024251
2.50684e-05
0.000219768
2.27419e-05
0.000199136
2.06323e-05
0.000180417
1.87192e-05
0.000163432
1.69851e-05
0.000148018
1.54137e-05
0.000134029
1.39894e-05
0.00012133
1.26988e-05
0.0001098
1.15298e-05
9.9329e-05
1.04711e-05
8.98165e-05
9.5125e-06
8.11716e-05
8.6449e-06
7.33116e-05
7.85995e-06
6.61615e-05
7.15009e-06
5.96531e-05
6.50848e-06
5.37241e-05
5.92892e-06
4.83184e-05
5.40579e-06
4.33844e-05
4.934e-06
3.88754e-05
4.50891e-06
3.47491e-05
4.12634e-06
3.09667e-05
3.78245e-06
2.74929e-05
3.47378e-06
2.42958e-05
3.19712e-06
2.13462e-05
2.94955e-06
1.86178e-05
2.72837e-06
1.60868e-05
2.53106e-06
1.37315e-05
2.35524e-06
1.15329e-05
2.19865e-06
9.47385e-06
2.05904e-06
7.53986e-06
1.934e-06
5.71904e-06
1.82081e-06
4.00378e-06
1.71526e-06
2.3953e-06
1.60847e-06
9.49787e-07
1.44552e-06
9.49787e-07
0.000395646
8.15227e-05
0.00035869
7.39699e-05
0.000325163
6.71059e-05
0.000294749
6.08759e-05
0.000267159
5.52241e-05
0.000242129
5.00977e-05
0.000219423
4.54483e-05
0.000198823
4.12322e-05
0.000180133
3.74094e-05
0.000163174
3.39442e-05
0.000147784
3.08034e-05
0.000133816
2.79571e-05
0.000121137
2.5378e-05
0.000109625
2.30418e-05
9.91703e-05
2.09259e-05
8.96725e-05
1.90103e-05
8.10411e-05
1.72764e-05
7.31934e-05
1.57077e-05
6.60545e-05
1.4289e-05
5.95562e-05
1.30067e-05
5.36368e-05
1.18484e-05
4.82397e-05
1.08029e-05
4.33137e-05
9.85992e-06
3.88123e-05
9.01031e-06
3.4693e-05
8.24564e-06
3.09172e-05
7.55827e-06
2.74498e-05
6.94125e-06
2.42587e-05
6.3882e-06
2.1315e-05
5.89326e-06
1.85923e-05
5.45104e-06
1.60668e-05
5.05651e-06
1.37171e-05
4.70494e-06
1.1524e-05
4.3918e-06
9.47034e-06
4.11268e-06
7.54135e-06
3.86299e-06
5.7245e-06
3.63766e-06
4.00928e-06
3.43048e-06
2.39167e-06
3.22609e-06
9.2743e-07
2.90975e-06
1.87722e-06
0.000394397
0.000122124
0.000357557
0.00011081
0.000324135
0.000100528
0.000293815
9.11954e-05
0.000266311
8.27288e-05
0.000241359
7.50491e-05
0.000218723
6.80841e-05
0.000198187
6.17682e-05
0.000179555
5.60416e-05
0.000162649
5.08505e-05
0.000147307
4.61454e-05
0.000133382
4.18814e-05
0.000120743
3.80179e-05
0.000109266
3.45181e-05
9.88438e-05
3.13484e-05
8.93754e-05
2.84786e-05
8.07708e-05
2.58811e-05
7.29474e-05
2.3531e-05
6.58308e-05
2.14056e-05
5.93529e-05
1.94846e-05
5.3452e-05
1.77493e-05
4.8072e-05
1.61829e-05
4.31617e-05
1.47702e-05
3.86748e-05
1.34972e-05
3.4569e-05
1.23515e-05
3.08057e-05
1.13216e-05
2.73499e-05
1.0397e-05
2.41699e-05
9.56819e-06
2.12368e-05
8.82643e-06
1.85242e-05
8.16359e-06
1.60086e-05
7.57216e-06
1.36685e-05
7.04505e-06
1.14847e-05
6.57554e-06
9.44032e-06
6.15709e-06
7.52017e-06
5.78314e-06
5.71113e-06
5.44671e-06
4.00173e-06
5.13987e-06
2.38692e-06
4.8409e-06
9.24023e-07
4.37265e-06
2.80124e-06
0.000392525
0.000162536
0.000355858
0.000147478
0.000322592
0.000133794
0.000292414
0.000121373
0.000265038
0.000110105
0.000240203
9.98842e-05
0.000217672
9.06144e-05
0.000197232
8.22084e-05
0.000178687
7.4587e-05
0.000161859
6.76781e-05
0.000146589
6.1416e-05
0.000132729
5.5741e-05
0.000120148
5.0599e-05
0.000108725
4.59409e-05
9.83512e-05
4.17223e-05
8.8927e-05
3.79028e-05
8.03624e-05
3.44456e-05
7.25757e-05
3.13177e-05
6.54923e-05
2.8489e-05
5.90448e-05
2.59321e-05
5.31717e-05
2.36224e-05
4.78171e-05
2.15375e-05
4.29302e-05
1.9657e-05
3.84648e-05
1.79626e-05
3.43789e-05
1.64375e-05
3.0634e-05
1.50664e-05
2.71955e-05
1.38355e-05
2.40317e-05
1.2732e-05
2.11138e-05
1.17443e-05
1.84157e-05
1.08617e-05
1.59139e-05
1.00739e-05
1.35871e-05
9.37181e-06
1.14163e-05
8.74635e-06
9.38443e-06
8.189e-06
7.47627e-06
7.69129e-06
5.67843e-06
7.24456e-06
3.97916e-06
6.83915e-06
2.37356e-06
6.4465e-06
9.18434e-07
5.82778e-06
3.71967e-06
0.000390034
0.000202694
0.000353596
0.000183917
0.000320538
0.000166852
0.000290548
0.000151363
0.000263342
0.000137311
0.000238662
0.000124564
0.000216272
0.000113004
0.000195959
0.000102521
0.000177529
9.30169e-05
0.000160807
8.4401e-05
0.000145631
7.65915e-05
0.000131858
6.95142e-05
0.000119355
6.31017e-05
0.000108003
5.72927e-05
9.7694e-05
5.20317e-05
8.83285e-05
4.72682e-05
7.98174e-05
4.29568e-05
7.20792e-05
3.90559e-05
6.50402e-05
3.5528e-05
5.86331e-05
3.23392e-05
5.27969e-05
2.94586e-05
4.74761e-05
2.68582e-05
4.26203e-05
2.45129e-05
3.81835e-05
2.23994e-05
3.41239e-05
2.04971e-05
3.04035e-05
1.87868e-05
2.69877e-05
1.72513e-05
2.38451e-05
1.58746e-05
2.09472e-05
1.46423e-05
1.8268e-05
1.35408e-05
1.57842e-05
1.25577e-05
1.34747e-05
1.16814e-05
1.13204e-05
1.09006e-05
9.30439e-06
1.0205e-05
7.4115e-06
9.58418e-06
5.62821e-06
9.02785e-06
3.94264e-06
8.52472e-06
2.35021e-06
8.03892e-06
9.07898e-07
7.27009e-06
4.62757e-06
0.000386927
0.000242538
0.000350775
0.000220069
0.000317976
0.000199651
0.000288221
0.000181117
0.000261228
0.000164303
0.000236741
0.000149052
0.000214526
0.000135219
0.000194372
0.000122676
0.000176086
0.000111303
0.000159493
0.000100993
0.000144436
9.16486e-05
0.000130771
8.318e-05
0.000118365
7.55068e-05
0.000107102
6.85558e-05
9.68735e-05
6.22604e-05
8.75813e-05
5.65605e-05
7.91367e-05
5.14014e-05
7.14592e-05
4.67334e-05
6.44754e-05
4.25118e-05
5.81187e-05
3.86959e-05
5.23286e-05
3.52487e-05
4.705e-05
3.21368e-05
4.22328e-05
2.933e-05
3.78316e-05
2.68007e-05
3.38048e-05
2.45239e-05
3.01148e-05
2.24768e-05
2.67272e-05
2.06388e-05
2.3611e-05
1.89908e-05
2.07379e-05
1.75155e-05
1.8082e-05
1.61966e-05
1.56204e-05
1.50194e-05
1.33319e-05
1.39698e-05
1.11979e-05
1.30347e-05
9.20123e-06
1.22016e-05
7.32694e-06
1.14585e-05
5.56149e-06
1.07933e-05
3.89295e-06
1.01933e-05
2.31724e-06
9.61463e-06
8.92372e-07
8.69496e-06
5.51994e-06
0.00038321
0.000282005
0.000347399
0.00025588
0.00031491
0.00023214
0.000285436
0.000210591
0.000258698
0.000191041
0.000234442
0.000173308
0.000212436
0.000157225
0.000192471
0.00014264
0.000174358
0.000129417
0.000157921
0.000117429
0.000143006
0.000106564
0.000129469
9.67171e-05
0.000117181
8.77951e-05
0.000106024
7.97128e-05
9.58913e-05
7.23929e-05
8.66866e-05
6.57652e-05
7.83217e-05
5.97662e-05
7.07167e-05
5.43384e-05
6.3799e-05
4.94295e-05
5.75027e-05
4.49923e-05
5.17676e-05
4.09837e-05
4.65395e-05
3.7365e-05
4.17686e-05
3.41009e-05
3.74098e-05
3.11594e-05
3.34223e-05
2.85114e-05
2.97685e-05
2.61306e-05
2.64147e-05
2.39926e-05
2.333e-05
2.20756e-05
2.04863e-05
2.03591e-05
1.78583e-05
1.88246e-05
1.54229e-05
1.74547e-05
1.31595e-05
1.62332e-05
1.10493e-05
1.51449e-05
9.07558e-06
1.41754e-05
7.22327e-06
1.33108e-05
5.47896e-06
1.25376e-05
3.83076e-06
1.18415e-05
2.27519e-06
1.11702e-05
8.71974e-07
1.00982e-05
6.39192e-06
0.000378889
0.000321034
0.000343475
0.000291294
0.000311346
0.000264269
0.000282199
0.000239739
0.000255756
0.000217484
0.000231768
0.000197296
0.000210006
0.000178987
0.000190262
0.000162384
0.000172348
0.00014733
0.000156094
0.000133684
0.000141343
0.000121315
0.000127956
0.000110105
0.000115803
9.99477e-05
0.000104769
9.07465e-05
9.47489e-05
8.24132e-05
8.5646e-05
7.4868e-05
7.73738e-05
6.80385e-05
6.98531e-05
6.18591e-05
6.30123e-05
5.62704e-05
5.6786e-05
5.12186e-05
5.1115e-05
4.66547e-05
4.59454e-05
4.25346e-05
4.12283e-05
3.88181e-05
3.6919e-05
3.54687e-05
3.2977e-05
3.24534e-05
2.93654e-05
2.97421e-05
2.60508e-05
2.73073e-05
2.30025e-05
2.51238e-05
2.0193e-05
2.31686e-05
1.75972e-05
2.14205e-05
1.51923e-05
1.98596e-05
1.29578e-05
1.84677e-05
1.08752e-05
1.72275e-05
8.9279e-06
1.61227e-05
7.10097e-06
1.51377e-05
5.38111e-06
1.42575e-05
3.75653e-06
1.3466e-05
2.22446e-06
1.27023e-05
8.46885e-07
1.14758e-05
7.2388e-06
0.00037397
0.000359565
0.000339008
0.000326256
0.000307289
0.000295988
0.000278513
0.000268515
0.000252408
0.000243589
0.000228725
0.000220979
0.000207239
0.000200473
0.000187747
0.000181877
0.000170061
0.000165016
0.000154013
0.000149732
0.00013945
0.000135878
0.000126232
0.000123322
0.000114234
0.000111946
0.000103341
0.00010164
9.34481e-05
9.23061e-05
8.44612e-05
8.38549e-05
7.62944e-05
7.62053e-05
6.88697e-05
6.92838e-05
6.21163e-05
6.30238e-05
5.59698e-05
5.73651e-05
5.03717e-05
5.22528e-05
4.52688e-05
4.76374e-05
4.06129e-05
4.3474e-05
3.63598e-05
3.97218e-05
3.24696e-05
3.63436e-05
2.8906e-05
3.33057e-05
2.56358e-05
3.05774e-05
2.26291e-05
2.81305e-05
1.98585e-05
2.59393e-05
1.72992e-05
2.39798e-05
1.49288e-05
2.223e-05
1.27271e-05
2.06694e-05
1.06758e-05
1.92788e-05
8.7585e-06
1.804e-05
6.96036e-06
1.69359e-05
5.26826e-06
1.59496e-05
3.67058e-06
1.50637e-05
2.16535e-06
1.42075e-05
8.17337e-07
1.28238e-05
8.05614e-06
0.000368462
0.000397537
0.000334006
0.000360712
0.000302746
0.000327249
0.000274386
0.000296875
0.000248657
0.000269318
0.000225316
0.00024432
0.000204141
0.000221648
0.000184929
0.000201089
0.000167498
0.000182447
0.000151682
0.000165548
0.000137329
0.000150231
0.000124302
0.000136349
0.000112477
0.000123771
0.000101741
0.000112376
9.19911e-05
0.000102056
8.3134e-05
9.2712e-05
7.50853e-05
8.4254e-05
6.77681e-05
7.6601e-05
6.11126e-05
6.96793e-05
5.50554e-05
6.34222e-05
4.95389e-05
5.77693e-05
4.45107e-05
5.26656e-05
3.99232e-05
4.80616e-05
3.57331e-05
4.39119e-05
3.19009e-05
4.01758e-05
2.8391e-05
3.68157e-05
2.51706e-05
3.37978e-05
2.22102e-05
3.10909e-05
1.94831e-05
2.86664e-05
1.69646e-05
2.64982e-05
1.46329e-05
2.45617e-05
1.24678e-05
2.28345e-05
1.04515e-05
2.12952e-05
8.56762e-06
1.99239e-05
6.80165e-06
1.87018e-05
5.14062e-06
1.76106e-05
3.57308e-06
1.66313e-05
2.09804e-06
1.56825e-05
7.83505e-07
1.41383e-05
8.83964e-06
0.000362372
0.000434892
0.000328476
0.000394608
0.000297723
0.000358002
0.000269822
0.000324775
0.000244511
0.000294629
0.000221548
0.000267283
0.000200715
0.000242481
0.000181814
0.000219989
0.000164666
0.000199596
0.000149105
0.000181109
0.000134984
0.000164351
0.000122168
0.000149165
0.000110535
0.000135404
9.99722e-05
0.000122939
9.038e-05
0.000111648
8.16664e-05
0.000101426
7.37482e-05
9.21722e-05
6.65498e-05
8.37994e-05
6.00026e-05
7.62265e-05
5.40442e-05
6.93806e-05
4.86179e-05
6.31956e-05
4.36723e-05
5.76113e-05
3.91604e-05
5.25734e-05
3.50398e-05
4.80325e-05
3.12717e-05
4.39438e-05
2.7821e-05
4.02664e-05
2.46556e-05
3.69632e-05
2.17465e-05
3.4e-05
1.90673e-05
3.13457e-05
1.65939e-05
2.89715e-05
1.43048e-05
2.68509e-05
1.21802e-05
2.49591e-05
1.02024e-05
2.32729e-05
8.35544e-06
2.17708e-05
6.62501e-06
2.04323e-05
4.99831e-06
1.92373e-05
3.46413e-06
1.81655e-05
2.02261e-06
1.71241e-05
7.45498e-07
1.54154e-05
9.58514e-06
0.000355711
0.000471573
0.000322427
0.000427893
0.000292228
0.0003882
0.000264831
0.000352172
0.000239975
0.000319485
0.000217425
0.000289833
0.000196968
0.000262939
0.000178407
0.00023855
0.000161567
0.000216436
0.000146286
0.00019639
0.000132419
0.000178218
0.000119834
0.00016175
0.000108409
0.000146829
9.80368e-05
0.000133311
8.86174e-05
0.000121068
8.00608e-05
0.000109982
7.22854e-05
9.99476e-05
6.52169e-05
9.08678e-05
5.87881e-05
8.26553e-05
5.29377e-05
7.52311e-05
4.76101e-05
6.85232e-05
4.27546e-05
6.24667e-05
3.83255e-05
5.70025e-05
3.42809e-05
5.20771e-05
3.05829e-05
4.76418e-05
2.7197e-05
4.36524e-05
2.40917e-05
4.00685e-05
2.12385e-05
3.68531e-05
1.86116e-05
3.39726e-05
1.61875e-05
3.13957e-05
1.39449e-05
2.90936e-05
1.18644e-05
2.70395e-05
9.92872e-06
2.52086e-05
8.12213e-06
2.35774e-05
6.43053e-06
2.21239e-05
4.84136e-06
2.08264e-05
3.34373e-06
1.96631e-05
1.93911e-06
1.85287e-05
7.03355e-07
1.66512e-05
1.02885e-05
0.00034849
0.000507523
0.000315868
0.000460515
0.000286271
0.000417798
0.000259418
0.000379025
0.000235057
0.000343846
0.000212955
0.000311934
0.000192904
0.00028299
0.000174712
0.000256742
0.000158206
0.000232942
0.000143229
0.000211367
0.000129637
0.00019181
0.000117302
0.000174086
0.000106104
0.000158026
9.59382e-05
0.000143477
8.67059e-05
0.0001303
7.83195e-05
0.000118369
7.06989e-05
0.000107568
6.37714e-05
9.77953e-05
5.74709e-05
8.89558e-05
5.17376e-05
8.09644e-05
4.65169e-05
7.37439e-05
4.17593e-05
6.72243e-05
3.74198e-05
6.1342e-05
3.34576e-05
5.60393e-05
2.98355e-05
5.1264e-05
2.65197e-05
4.69682e-05
2.34794e-05
4.31087e-05
2.06869e-05
3.96457e-05
1.81167e-05
3.65428e-05
1.57459e-05
3.37665e-05
1.35535e-05
3.12859e-05
1.15208e-05
2.90722e-05
9.63073e-06
2.70987e-05
7.86783e-06
2.53403e-05
6.21828e-06
2.37734e-05
4.66979e-06
2.23749e-05
3.21184e-06
2.1121e-05
1.84751e-06
1.9893e-05
6.57081e-07
1.78416e-05
1.09456e-05
0.000340719
0.000542685
0.00030881
0.000492423
0.00027986
0.000446748
0.000253594
0.000405291
0.000229764
0.000367676
0.000208145
0.000333554
0.000188531
0.000302604
0.000170735
0.000274537
0.000154589
0.000249088
0.000139939
0.000226017
0.000126644
0.000205105
0.000114577
0.000186152
0.000103624
0.000168979
9.36794e-05
0.000153422
8.46487e-05
0.000139331
7.64454e-05
0.000126572
6.89914e-05
0.000115022
6.22154e-05
0.000104571
5.60531e-05
9.51181e-05
5.04457e-05
8.65718e-05
4.534e-05
7.88496e-05
4.06876e-05
7.18767e-05
3.64446e-05
6.5585e-05
3.2571e-05
5.99129e-05
2.90305e-05
5.48045e-05
2.57901e-05
5.02086e-05
2.28198e-05
4.6079e-05
2.00924e-05
4.23731e-05
1.75831e-05
3.90521e-05
1.52695e-05
3.60801e-05
1.31312e-05
3.34242e-05
1.11498e-05
3.10536e-05
9.30863e-06
2.89399e-05
7.59266e-06
2.70563e-05
5.98831e-06
2.53778e-05
4.4835e-06
2.38798e-05
3.0683e-06
2.25362e-05
1.74767e-06
2.12136e-05
6.06636e-07
1.89826e-05
1.15522e-05
0.00033241
0.000577007
0.000301264
0.00052357
0.000273005
0.000475007
0.000247366
0.00043093
0.000224104
0.000390938
0.000203001
0.000354657
0.000183854
0.00032175
0.000166483
0.000291908
0.000150722
0.000264849
0.000136421
0.000240319
0.000123442
0.000218083
0.000111663
0.000197931
0.000100971
0.000179671
9.1264e-05
0.000163129
8.24487e-05
0.000148146
7.44412e-05
0.000134579
6.71653e-05
0.000122298
6.05514e-05
0.000111185
5.45367e-05
0.000101133
4.9064e-05
9.20445e-05
4.40812e-05
8.38324e-05
3.95413e-05
7.64166e-05
3.54014e-05
6.9725e-05
3.16224e-05
6.36919e-05
2.81691e-05
5.82578e-05
2.50092e-05
5.33685e-05
2.21136e-05
4.89746e-05
1.94557e-05
4.5031e-05
1.70114e-05
4.14963e-05
1.47588e-05
3.83326e-05
1.26782e-05
3.55048e-05
1.07516e-05
3.29803e-05
8.96263e-06
3.07289e-05
7.29674e-06
2.87222e-05
5.74067e-06
2.69338e-05
4.28254e-06
2.53379e-05
2.91312e-06
2.39057e-05
1.63925e-06
2.24875e-05
5.51831e-07
2.00701e-05
1.2104e-05
0.000323578
0.000610437
0.000293242
0.000553905
0.000265718
0.000502531
0.000240745
0.000455903
0.000218087
0.000413595
0.000197532
0.000375213
0.000178882
0.000340399
0.000161962
0.000308828
0.00014661
0.000280201
0.00013268
0.000254249
0.000120039
0.000230725
0.000108565
0.000209404
9.81509e-05
0.000190086
8.86957e-05
0.000172584
8.01094e-05
0.000156732
7.23101e-05
0.000142379
6.52235e-05
0.000129385
5.87819e-05
0.000117627
5.29242e-05
0.000106991
4.75945e-05
9.73742e-05
4.27424e-05
8.86844e-05
3.8322e-05
8.0837e-05
3.42916e-05
7.37554e-05
3.06132e-05
6.73703e-05
2.72524e-05
6.16186e-05
2.41781e-05
5.64429e-05
2.13617e-05
5.1791e-05
1.87776e-05
4.76151e-05
1.64023e-05
4.38717e-05
1.42145e-05
4.05204e-05
1.21951e-05
3.75242e-05
1.03265e-05
3.48489e-05
8.59295e-06
3.24624e-05
6.98019e-06
3.03349e-05
5.47535e-06
2.84387e-05
4.06685e-06
2.67464e-05
2.74615e-06
2.52264e-05
1.52207e-06
2.37116e-05
4.92562e-07
2.10996e-05
1.25966e-05
0.000314235
0.000642924
0.000284756
0.000583384
0.00025801
0.000529277
0.00023374
0.000480172
0.000211722
0.000435614
0.000191746
0.000395189
0.000173622
0.000358523
0.000157179
0.000325271
0.00014226
0.000295121
0.000128722
0.000267787
0.000116437
0.00024301
0.000105288
0.000220554
9.51669e-05
0.000200207
8.59784e-05
0.000181773
7.76344e-05
0.000165076
7.00553e-05
0.000149958
6.31689e-05
0.000136271
5.69096e-05
0.000123886
5.12178e-05
0.000112682
4.60395e-05
0.000102552
4.13256e-05
9.33983e-05
3.70316e-05
8.51311e-05
3.31169e-05
7.76701e-05
2.95447e-05
7.09424e-05
2.62818e-05
6.48815e-05
2.32979e-05
5.94268e-05
2.05653e-05
5.45236e-05
1.80591e-05
5.01213e-05
1.57566e-05
4.61742e-05
1.36372e-05
4.26398e-05
1.16823e-05
3.94792e-05
9.87493e-06
3.66562e-05
8.19981e-06
3.41375e-05
6.64312e-06
3.18916e-05
5.19234e-06
2.98894e-05
3.83628e-06
2.81024e-05
2.56709e-06
2.64955e-05
1.39593e-06
2.48827e-05
4.28735e-07
2.20668e-05
1.30253e-05
0.000304395
0.000674423
0.000275821
0.000611958
0.000249892
0.000555207
0.000226364
0.000503701
0.000205018
0.00045696
0.000185652
0.000414555
0.000168082
0.000376093
0.000152142
0.000341212
0.000137678
0.000309584
0.000124554
0.000280911
0.000112645
0.000254919
0.000101836
0.000231363
9.2024e-05
0.000210018
8.31163e-05
0.00019068
7.50274e-05
0.000173165
6.76803e-05
0.000157305
6.10047e-05
0.000142947
5.49373e-05
0.000129953
4.94203e-05
0.000118199
4.44014e-05
0.000107571
3.98329e-05
9.79668e-05
3.56718e-05
8.92921e-05
3.1879e-05
8.1463e-05
2.84187e-05
7.44027e-05
2.52587e-05
6.80414e-05
2.23698e-05
6.23158e-05
1.97252e-05
5.71681e-05
1.73009e-05
5.25456e-05
1.50749e-05
4.84002e-05
1.30274e-05
4.46873e-05
1.11402e-05
4.13663e-05
9.39721e-06
3.83992e-05
7.78345e-06
3.57513e-05
6.28561e-06
3.33895e-05
4.8916e-06
3.12835e-05
3.59064e-06
2.94034e-05
2.37565e-06
2.77105e-05
1.26057e-06
2.59978e-05
3.60203e-07
2.29671e-05
1.33855e-05
0.000294076
0.000704893
0.000266451
0.000639583
0.000241377
0.00058028
0.000218626
0.000526452
0.000197986
0.0004776
0.00017926
0.000433281
0.000162271
0.000393082
0.000146857
0.000356626
0.000132872
0.000323569
0.000120182
0.000293601
0.000108666
0.000266435
9.82141e-05
0.000241815
8.8727e-05
0.000219505
8.01139e-05
0.000199294
7.22926e-05
0.000180987
6.51886e-05
0.000164409
5.87343e-05
0.000149401
5.28681e-05
0.00013582
4.75344e-05
0.000123533
4.26825e-05
0.000112423
3.82666e-05
0.000102383
3.42449e-05
9.33138e-05
3.05797e-05
8.51282e-05
2.72366e-05
7.77458e-05
2.41845e-05
7.10935e-05
2.13951e-05
6.51052e-05
1.88427e-05
5.97205e-05
1.65041e-05
5.48842e-05
1.43582e-05
5.05461e-05
1.23858e-05
4.66597e-05
1.05695e-05
4.31825e-05
8.89373e-06
4.00751e-05
7.34409e-06
3.73009e-05
5.90777e-06
3.48258e-05
4.57308e-06
3.26181e-05
3.32971e-06
3.06468e-05
2.17147e-06
2.88688e-05
1.11563e-06
2.70537e-05
2.86765e-07
2.3796e-05
1.36723e-05
0.000283287
0.000734288
0.000256662
0.000666208
0.00023248
0.000604462
0.00021054
0.000548392
0.000190637
0.000497503
0.00017258
0.000451338
0.000156198
0.000409464
0.000141334
0.000371489
0.000127849
0.000337055
0.000115612
0.000305838
0.000104507
0.00027754
9.4429e-05
0.000251893
8.52809e-05
0.000228653
7.69757e-05
0.000207599
6.94341e-05
0.000188528
6.25843e-05
0.000171259
5.6361e-05
0.000155624
5.07051e-05
0.000141475
4.55629e-05
0.000128675
4.08855e-05
0.000117101
3.66289e-05
0.000106639
3.27529e-05
9.71898e-05
2.9221e-05
8.86601e-05
2.60003e-05
8.09665e-05
2.30607e-05
7.40331e-05
2.03752e-05
6.77908e-05
1.7919e-05
6.21767e-05
1.56698e-05
5.71335e-05
1.36073e-05
5.26086e-05
1.17131e-05
4.85539e-05
9.9707e-06
4.4925e-05
8.36488e-06
4.16809e-05
6.88197e-06
3.87838e-05
5.50968e-06
3.61981e-05
4.23671e-06
3.38911e-05
3.05327e-06
3.18302e-05
1.95422e-06
2.99678e-05
9.60703e-07
2.80472e-05
2.08131e-07
2.45486e-05
1.38804e-05
0.000272067
0.00076256
-0.000300338
0.000246457
0.000691817
0.000223211
0.000627708
0.000202118
0.000569485
0.000182982
0.000516639
0.000165621
0.000468698
0.000149871
0.000425214
0.000135581
0.000385779
0.000122616
0.00035002
0.000110851
0.000317602
0.000100175
0.000288216
9.04862e-05
0.000261582
8.16912e-05
0.000237448
7.37066e-05
0.000215583
6.64563e-05
0.000195778
5.98712e-05
0.000177844
5.38886e-05
0.000161607
4.84516e-05
0.000146912
4.35088e-05
0.000133618
3.90132e-05
0.000121596
3.49224e-05
0.00011073
3.11979e-05
0.000100914
2.78048e-05
9.20532e-05
2.47114e-05
8.40599e-05
2.18889e-05
7.68555e-05
1.93114e-05
7.03683e-05
1.69552e-05
6.45329e-05
1.47988e-05
5.92898e-05
1.2823e-05
5.45844e-05
1.10101e-05
5.03667e-05
9.34431e-06
4.65908e-05
7.81108e-06
4.32141e-05
6.39738e-06
4.01975e-05
5.09144e-06
3.7504e-05
3.88244e-06
3.51001e-05
2.7611e-06
3.29515e-05
1.72349e-06
3.10054e-05
7.95406e-07
2.89753e-05
1.23875e-07
2.52201e-05
1.40043e-05
0.000260398
0.000789647
-0.000287485
0.000235853
0.000716362
0.000213583
0.000649978
0.000193372
0.000589696
0.000175033
0.000534978
0.000158395
0.000485336
0.000143301
0.000440308
0.000129607
0.000399473
0.000117182
0.000362445
0.000105908
0.000328877
9.5677e-05
0.000298447
8.63916e-05
0.000270868
7.79633e-05
0.000245877
7.03117e-05
0.000223235
6.33638e-05
0.000202726
5.70535e-05
0.000184154
5.13208e-05
0.00016734
4.61111e-05
0.000152122
4.13753e-05
0.000138354
3.70683e-05
0.000125903
3.31496e-05
0.000114649
2.95824e-05
0.000104482
2.63333e-05
9.53024e-05
2.33719e-05
8.70213e-05
2.06709e-05
7.95566e-05
1.82053e-05
7.28339e-05
1.59526e-05
6.67856e-05
1.38925e-05
6.13499e-05
1.20064e-05
5.64705e-05
1.02776e-05
5.20955e-05
8.69096e-06
4.81774e-05
7.23278e-06
4.46723e-05
5.89057e-06
4.15397e-05
4.65316e-06
3.87414e-05
3.51019e-06
3.62431e-05
2.45296e-06
3.40088e-05
1.47894e-06
3.19795e-05
6.19508e-07
2.98347e-05
3.31044e-08
2.58065e-05
1.40374e-05
0.000248323
0.000815521
-0.000274197
0.000224873
0.000739812
0.000203611
0.00067124
0.000184314
0.000608993
0.000166801
0.000552491
0.000150913
0.000501225
0.000136498
0.000454722
0.000123421
0.00041255
0.000111556
0.000374311
0.000100789
0.000339643
9.10188e-05
0.000308217
8.21516e-05
0.000279735
7.4103e-05
0.000253925
6.67961e-05
0.000230542
6.01613e-05
0.000209361
5.41355e-05
0.00019018
4.86615e-05
0.000172814
4.36872e-05
0.000157096
3.91655e-05
0.000142876
3.50538e-05
0.000130015
3.13133e-05
0.000118389
2.79088e-05
0.000107886
2.48085e-05
9.84026e-05
2.19837e-05
8.98461e-05
1.94082e-05
8.21321e-05
1.70583e-05
7.51838e-05
1.49126e-05
6.89313e-05
1.29518e-05
6.33107e-05
1.11583e-05
5.8264e-05
9.51627e-06
5.37376e-05
8.0113e-06
4.96824e-05
6.63043e-06
4.60532e-05
5.36184e-06
4.28083e-05
4.19496e-06
3.99083e-05
3.11991e-06
3.73181e-05
2.12865e-06
3.5e-05
1.22027e-06
3.28878e-05
4.32317e-07
3.06226e-05
-6.41037e-08
2.63029e-05
1.39733e-05
0.000235853
0.000840141
-0.000260472
0.000213538
0.000762127
0.000193313
0.000691465
0.000174959
0.000627347
0.000158301
0.000569149
0.000143186
0.000516339
0.000129473
0.000468435
0.000117032
0.000424991
0.000105745
0.000385598
9.55025e-05
0.000349885
8.62081e-05
0.000317512
7.77728e-05
0.00028817
7.01162e-05
0.000261582
6.31652e-05
0.000237493
5.68538e-05
0.000215672
5.11218e-05
0.000195912
4.59148e-05
0.000178021
4.11835e-05
0.000161828
3.6883e-05
0.000147176
3.29728e-05
0.000133925
2.9416e-05
0.000121946
2.61795e-05
0.000111123
2.32329e-05
0.000101349
2.05489e-05
9.25301e-05
1.81028e-05
8.45782e-05
1.58721e-05
7.74144e-05
1.38367e-05
7.09667e-05
1.19781e-05
6.51693e-05
1.02799e-05
5.99622e-05
8.72705e-06
5.52904e-05
7.306e-06
5.11034e-05
6.00453e-06
4.73546e-05
4.81151e-06
4.40013e-05
3.71698e-06
4.10028e-05
2.71157e-06
3.83236e-05
1.78792e-06
3.59237e-05
9.47316e-07
3.37284e-05
2.32796e-07
3.13372e-05
-1.65162e-07
2.67009e-05
1.38082e-05
0.00022301
0.000863463
-0.000246333
0.000201865
0.000783273
0.000182705
0.000710625
0.000165321
0.00064473
0.000149543
0.000584927
0.000135226
0.000530657
0.000122236
0.000481425
0.000110451
0.000436776
9.97587e-05
0.000396291
9.00566e-05
0.000359587
8.12524e-05
0.000326316
7.32619e-05
0.000296161
6.60091e-05
0.000268835
5.94248e-05
0.000244077
5.34464e-05
0.000221651
4.8017e-05
0.000201341
4.3085e-05
0.000182953
3.86039e-05
0.000166309
3.45311e-05
0.000151249
3.08284e-05
0.000137628
2.74608e-05
0.000125314
2.43971e-05
0.000114186
2.16086e-05
0.000104138
1.90695e-05
9.50692e-05
1.67564e-05
8.68913e-05
1.46483e-05
7.95225e-05
1.27262e-05
7.28889e-05
1.09726e-05
6.69228e-05
9.3722e-06
6.15626e-05
7.91081e-06
5.67518e-05
6.57577e-06
5.24385e-05
5.35561e-06
4.85748e-05
4.23991e-06
4.5117e-05
3.21937e-06
4.20234e-05
2.28514e-06
3.92578e-05
1.43059e-06
3.67782e-05
6.60409e-07
3.44986e-05
1.9271e-08
3.19783e-05
-2.66969e-07
2.69871e-05
1.35412e-05
0.000209814
0.000885451
-0.000231801
0.000189872
0.000803215
0.000171804
0.000728693
0.000155416
0.000661118
0.000140543
0.0005998
0.000127045
0.000544155
0.000114798
0.000493672
0.000103688
0.000447887
9.36067e-05
0.000406371
8.44598e-05
0.000368734
7.61592e-05
0.000334616
6.86258e-05
0.000303694
6.1788e-05
0.000275673
5.55805e-05
0.000250285
4.99442e-05
0.000227287
4.48257e-05
0.00020646
4.01764e-05
0.000187602
3.59523e-05
0.000170533
3.21134e-05
0.000155088
2.86238e-05
0.000141118
2.54506e-05
0.000128487
2.25643e-05
0.000117073
1.99381e-05
0.000106764
1.75476e-05
9.74596e-05
1.53711e-05
8.90678e-05
1.33887e-05
8.15049e-05
1.15826e-05
7.4695e-05
9.93667e-06
6.85688e-05
8.43633e-06
6.3063e-05
7.06849e-06
5.81196e-05
5.82133e-06
5.36856e-05
4.6842e-06
4.97119e-05
3.64739e-06
4.61538e-05
2.70227e-06
4.29685e-05
1.84065e-06
4.01194e-05
1.05648e-06
3.75624e-05
3.58407e-07
3.51967e-05
-2.08149e-07
3.25449e-05
-3.67512e-07
2.71465e-05
1.31737e-05
0.000196282
0.000906069
-0.0002169
0.000177576
0.000821921
0.000160628
0.000745641
0.00014526
0.000676486
0.000131314
0.000613747
0.000118657
0.000556812
0.000107172
0.000505156
9.6752e-05
0.000458306
8.72983e-05
0.000415825
7.87205e-05
0.000377312
7.09364e-05
0.000342401
6.38718e-05
0.000310759
5.74594e-05
0.000282085
5.16382e-05
0.000256106
4.63528e-05
0.000232573
4.15531e-05
0.000211259
3.71935e-05
0.000191962
3.32328e-05
0.000174494
2.96337e-05
0.000158687
2.63625e-05
0.000144389
2.33884e-05
0.000131461
2.06839e-05
0.000119777
1.82238e-05
0.000109224
1.59856e-05
9.96978e-05
1.39489e-05
9.11046e-05
1.20951e-05
8.33587e-05
1.04076e-05
7.63824e-05
8.8716e-06
7.01048e-05
7.47344e-06
6.44611e-05
6.20105e-06
5.9392e-05
5.04347e-06
5.48432e-05
3.99088e-06
5.07645e-05
3.03434e-06
4.71104e-05
2.16587e-06
4.3837e-05
1.37805e-06
4.09072e-05
6.65503e-07
3.82749e-05
3.86756e-08
3.58235e-05
-4.4593e-07
3.30295e-05
-4.66567e-07
2.71671e-05
1.27071e-05
0.000182436
0.000925285
-0.000201652
0.000164996
0.000839361
0.000149194
0.000761443
0.000134868
0.000690812
0.00012187
0.000626745
0.000110073
0.000568609
9.93677e-05
0.000515861
8.96552e-05
0.000468019
8.08431e-05
0.000424637
7.28478e-05
0.000385307
6.55921e-05
0.000349656
5.90071e-05
0.000317344
5.303e-05
0.000288062
4.76041e-05
0.000261532
4.26776e-05
0.000237499
3.8204e-05