/*--------------------------------*- C++ -*----------------------------------*\
  =========                 |
  \\      /  F ield         | OpenFOAM: The Open Source CFD Toolbox
   \\    /   O peration     | Website:  https://openfoam.org
    \\  /    A nd           | Version:  13
     \\/     M anipulation  |
\*---------------------------------------------------------------------------*/
FoamFile
{
    format      ascii;
    class       volVectorField;
    location    "262";
    object      U;
}
// * * * * * * * * * * * * * * * * * * * * * * * * * * * * * * * * * * * * * //

dimensions      [0 1 -1 0 0 0 0];

internalField   nonuniform List<vector> 
26820
(
(5.39977 0.000106307 3.52844e-21)
(5.39793 0.000311647 -2.38948e-22)
(5.39442 0.000529656 5.08148e-22)
(5.38957 0.000768245 -8.21477e-22)
(5.38369 0.00103844 5.74586e-22)
(5.37698 0.00133266 0)
(5.36949 0.00171084 6.81131e-22)
(5.39977 0.000306973 -4.14047e-21)
(5.39794 0.000920267 4.34936e-21)
(5.39444 0.00157128 0)
(5.3896 0.00228333 0)
(5.38375 0.00309196 0)
(5.37707 0.00397112 0)
(5.36961 0.00510615 -3.06892e-21)
(5.39977 0.000499443 5.46416e-22)
(5.39794 0.00152215 -5.15044e-21)
(5.39446 0.00260466 2.37029e-21)
(5.38964 0.00378747 -7.37055e-23)
(5.38382 0.00513386 -2.71528e-21)
(5.37719 0.00659507 5.71217e-21)
(5.3698 0.00848995 -6.0507e-21)
(5.39977 0.000697492 1.82056e-20)
(5.39795 0.00213353 -1.01509e-20)
(5.39448 0.00364833 7.16116e-21)
(5.38969 0.00530208 -2.48399e-21)
(5.38391 0.00718643 5.32135e-21)
(5.37736 0.00922819 2.91435e-21)
(5.37006 0.011884 -1.19001e-20)
(5.39977 0.000897314 -1.7961e-20)
(5.39796 0.00274538 1.00311e-20)
(5.39451 0.0046911 -1.98447e-23)
(5.38976 0.00681408 9.94622e-21)
(5.38404 0.00923439 0)
(5.37759 0.011852 0)
(5.37042 0.0152656 -2.9529e-21)
(5.39976 0.00109803 0)
(5.39797 0.00335757 0)
(5.39454 0.00573351 -1.38862e-20)
(5.38985 0.00832421 -1.47472e-20)
(5.38421 0.0112786 -1.57581e-20)
(5.37789 0.0144665 1.12081e-20)
(5.37086 0.0186353 -5.42306e-21)
(5.39976 0.00129968 -1.43181e-20)
(5.39798 0.00397068 -1.95082e-20)
(5.39459 0.0067758 2.75859e-20)
(5.38996 0.00983222 0)
(5.38441 0.0133182 2.07466e-20)
(5.37824 0.0170694 5.28775e-21)
(5.37139 0.0219893 2.31246e-20)
(5.39976 0.00150237 4.90132e-23)
(5.39799 0.00458485 2.15201e-20)
(5.39464 0.00781766 -1.81399e-20)
(5.39008 0.0113374 -4.78663e-21)
(5.38465 0.0153519 -1.03213e-20)
(5.37866 0.0196581 -1.09633e-20)
(5.37202 0.0253244 -3.70972e-23)
(5.39976 0.00170614 1.59925e-20)
(5.39801 0.00520003 4.28333e-21)
(5.3947 0.00885867 -4.47109e-21)
(5.39023 0.012839 0)
(5.38492 0.0173783 0)
(5.37914 0.0222302 1.08447e-20)
(5.37274 0.0286373 -1.15352e-20)
(5.39976 0.00191097 0)
(5.39803 0.00581607 1.67558e-20)
(5.39477 0.0098983 -1.78413e-20)
(5.3904 0.0143362 0)
(5.38523 0.0193959 -1.01455e-20)
(5.37969 0.024783 -1.08611e-20)
(5.37356 0.0319244 -5.9328e-21)
(5.39976 0.00211684 3.11399e-20)
(5.39806 0.00643273 -1.66678e-20)
(5.39486 0.0109359 3.5484e-20)
(5.39059 0.0158283 0)
(5.38558 0.0214031 2.02493e-20)
(5.38031 0.0273141 0)
(5.37448 0.0351821 0)
(5.39976 0.00232366 -2.078e-21)
(5.39809 0.00704963 6.21812e-21)
(5.39495 0.0119708 -3.06989e-20)
(5.39081 0.0173143 -9.33419e-21)
(5.38598 0.023398 -1.01193e-20)
(5.38099 0.0298215 0)
(5.37549 0.0384067 -2.32304e-20)
(5.39976 0.00253134 -3.07247e-20)
(5.39812 0.00766629 4.13417e-21)
(5.39506 0.013002 -4.25605e-21)
(5.39105 0.0187934 9.52783e-21)
(5.38642 0.0253783 -9.94556e-21)
(5.38174 0.0323032 -1.1059e-20)
(5.3766 0.0415937 3.38951e-20)
(5.39976 0.00273974 3.82079e-21)
(5.39816 0.00828218 -4.06179e-21)
(5.39518 0.0140288 1.75193e-20)
(5.39132 0.0202646 1.86971e-20)
(5.3869 0.0273416 -1.00097e-20)
(5.38257 0.0347579 -1.07754e-20)
(5.37782 0.0447376 -5.79304e-21)
(5.39977 0.00294865 0)
(5.3982 0.00889667 1.6198e-20)
(5.39531 0.0150504 0)
(5.39161 0.0217272 -1.88033e-20)
(5.38742 0.0292856 2.00959e-20)
(5.38346 0.0371851 -2.16928e-20)
(5.37913 0.0478308 3.99908e-20)
(5.39977 0.00315776 0)
(5.39825 0.00950861 -1.62648e-20)
(5.39546 0.016066 -8.81204e-21)
(5.39193 0.0231815 9.14569e-21)
(5.388 0.0312098 -2.05026e-20)
(5.38442 0.0395884 1.02933e-20)
(5.38054 0.0508659 2.26619e-20)
(5.39978 0.00336686 -1.50507e-20)
(5.39831 0.0101153 0)
(5.39563 0.0170704 0)
(5.39227 0.0246207 -9.43714e-21)
(5.38862 0.0331079 0)
(5.38544 0.0419697 1.09006e-20)
(5.38205 0.0538314 -2.27586e-20)
(5.39979 0.00357733 1.89634e-20)
(5.39837 0.0107163 -4.05502e-21)
(5.39581 0.018056 0)
(5.39265 0.0260245 0)
(5.3893 0.0349468 2.04881e-20)
(5.38653 0.0442972 -2.6911e-20)
(5.38365 0.0566737 2.32505e-20)
(5.3998 0.00379374 0)
(5.39843 0.0113367 8.2438e-21)
(5.39599 0.0190713 -8.75722e-21)
(5.39304 0.027447 4.86344e-21)
(5.39001 0.0367581 -3.06309e-20)
(5.38765 0.0465517 2.96278e-20)
(5.38535 0.0593066 2.01774e-20)
(5.39982 0.00401381 0)
(5.3985 0.012057 9.11018e-21)
(5.39618 0.0203857 -9.64149e-21)
(5.39342 0.029428 5.22932e-21)
(5.39075 0.0393641 0)
(5.38879 0.0497819 -2.63915e-20)
(5.3872 0.062886 2.74294e-20)
(5.36079 0.00198767 3.11381e-23)
(5.35049 0.00225871 -1.54744e-21)
(5.33886 0.00253894 8.46783e-22)
(5.32581 0.00284316 7.79449e-21)
(5.31124 0.00317727 -5.66426e-22)
(5.29504 0.00354524 -4.97895e-21)
(5.27702 0.00395193 6.77081e-22)
(5.25701 0.00440309 0)
(5.23477 0.00490312 0)
(5.21012 0.00546459 0)
(5.18277 0.00609077 0)
(5.1524 0.00678921 0)
(5.11872 0.00757018 -5.03954e-22)
(5.08136 0.00844637 8.84142e-22)
(5.03988 0.00943142 5.48028e-21)
(4.99384 0.0105404 0)
(4.9427 0.0117907 5.71058e-22)
(4.8859 0.013202 -9.91003e-22)
(4.82278 0.014797 6.88021e-21)
(4.75264 0.0166019 0)
(4.67468 0.0186464 4.78187e-21)
(4.58802 0.0209645 3.79009e-22)
(4.49168 0.0235949 6.57067e-21)
(4.38459 0.0265814 -4.21533e-21)
(4.26559 0.0299734 0)
(4.13339 0.0338266 0)
(3.98662 0.0382026 -3.6527e-21)
(3.82378 0.0431696 0)
(3.64332 0.0488018 5.21837e-21)
(3.44357 0.0551789 -5.40812e-21)
(3.22283 0.062385 -8.95433e-22)
(2.97939 0.0705055 4.38863e-21)
(2.71154 0.0796231 6.73111e-22)
(2.4177 0.0898103 4.49549e-23)
(2.09643 0.101108 -1.81414e-21)
(1.74687 0.11349 1.04115e-21)
(1.36755 0.126752 0)
(0.961983 0.140006 0)
(0.53038 0.14723 0)
(0.119217 0.112343 0)
(5.36096 0.00593038 2.85544e-21)
(5.3507 0.00674271 1.32103e-20)
(5.33911 0.00758073 0)
(5.3261 0.00848787 -8.55544e-21)
(5.31158 0.00948366 0)
(5.29543 0.0105805 1.66634e-20)
(5.27747 0.0117926 0)
(5.25752 0.0131371 1.87756e-21)
(5.23535 0.0146306 -2.00979e-21)
(5.21078 0.0162954 -1.25786e-21)
(5.18352 0.018155 2.96061e-21)
(5.15324 0.0202351 -1.73803e-21)
(5.11967 0.0225646 8.74264e-21)
(5.08242 0.0251795 0)
(5.04108 0.0281196 -6.48222e-21)
(4.99518 0.0314299 -1.57053e-20)
(4.94422 0.0351618 -1.24698e-21)
(4.88761 0.0393743 1.39395e-21)
(4.82472 0.044135 -7.01699e-21)
(4.75485 0.0495211 0)
(4.67719 0.0556212 -5.13312e-21)
(4.59088 0.0625361 0)
(4.49495 0.0703804 9.37925e-21)
(4.38835 0.0792843 2.34263e-21)
(4.26991 0.0893942 0)
(4.13838 0.100875 -1.47172e-20)
(3.99238 0.113908 1.36329e-20)
(3.83045 0.128696 0)
(3.65105 0.145459 -7.12325e-21)
(3.45255 0.164431 6.64396e-21)
(3.23327 0.185862 4.05176e-21)
(2.99152 0.210002 -7.17513e-21)
(2.72565 0.237099 2.97618e-21)
(2.43406 0.267368 -3.3361e-21)
(2.11533 0.300948 8.12267e-21)
(1.76848 0.337801 0)
(1.39171 0.377545 0)
(0.987463 0.417889 0)
(0.55432 0.440205 0)
(0.119444 0.332022 9.73451e-21)
(5.36123 0.00985197 2.54856e-21)
(5.35103 0.0112038 -9.36528e-21)
(5.3395 0.0125975 3.17545e-20)
(5.32656 0.0141027 -8.05237e-21)
(5.31213 0.0157541 2.27492e-20)
(5.29606 0.0175732 -7.76943e-21)
(5.27819 0.0195832 2.09662e-20)
(5.25834 0.0218123 -1.77186e-21)
(5.23628 0.0242914 1.75332e-20)
(5.21183 0.0270531 -2.37776e-21)
(5.18471 0.0301383 2.69311e-21)
(5.1546 0.0335921 1.76325e-21)
(5.1212 0.0374617 8.34159e-21)
(5.08416 0.0418051 -2.2384e-20)
(5.04304 0.0466881 3.17035e-21)
(4.99741 0.0521853 -3.4882e-21)
(4.94674 0.0583819 -2.33343e-21)
(4.89047 0.0653755 2.60589e-21)
(4.82798 0.0732777 -1.30476e-20)
(4.75856 0.0822163 0)
(4.68143 0.0923373 0)
(4.59573 0.103807 -1.14837e-20)
(4.50051 0.116815 -1.75599e-20)
(4.39474 0.131575 4.02507e-21)
(4.27726 0.148328 0)
(4.14685 0.167346 1.21218e-20)
(4.00216 0.188928 -1.10591e-20)
(3.84176 0.213406 6.4533e-21)
(3.66414 0.241141 1.05399e-20)
(3.46771 0.272517 -2.99805e-21)
(3.25083 0.307943 0)
(3.01187 0.347833 0)
(2.74919 0.39259 -1.04016e-20)
(2.46127 0.442581 0)
(2.14664 0.498071 -2.19514e-20)
(1.8043 0.559092 1.30161e-20)
(1.43221 0.625376 -5.00827e-21)
(1.03202 0.693681 -1.50354e-20)
(0.601127 0.732178 3.69781e-21)
(0.148087 0.546517 -8.84427e-21)
(5.36161 0.0137738 1.02699e-20)
(5.3515 0.0156603 -5.69811e-21)
(5.34007 0.0176082 -2.99664e-20)
(5.32722 0.0197102 7.58594e-21)
(5.31289 0.0220156 1.29605e-20)
(5.29694 0.024555 0)
(5.2792 0.0273608 -2.55694e-20)
(5.25949 0.0304725 3.14284e-21)
(5.23759 0.0339341 -1.48704e-20)
(5.21332 0.0377911 0)
(5.1864 0.0420986 2.73851e-21)
(5.1565 0.046921 -6.42568e-21)
(5.12336 0.0523239 -1.18232e-20)
(5.0866 0.0583873 1.08757e-22)
(5.04581 0.0652028 -2.57679e-20)
(5.00055 0.0728743 1.72286e-20)
(4.95031 0.0815203 -2.18973e-21)
(4.89454 0.0912764 2.44332e-21)
(4.83261 0.102298 1.54991e-20)
(4.76384 0.114762 1.11725e-20)
(4.68747 0.128871 0)
(4.60265 0.144857 1.36113e-20)
(4.50846 0.162981 -6.50449e-21)
(4.40387 0.183541 -1.17462e-20)
(4.28777 0.206871 0)
(4.15896 0.233346 2.93195e-21)
(4.01614 0.263381 -3.23994e-21)
(3.85791 0.297435 4.19353e-21)
(3.68281 0.336004 -1.42889e-20)
(3.48929 0.379624 -2.97496e-21)
(3.27579 0.428854 3.29129e-21)
(3.04071 0.484268 1.60103e-20)
(2.78248 0.546429 9.62323e-21)
(2.49962 0.615858 0)
(2.19069 0.692971 1.33719e-20)
(1.85466 0.777936 -1.18111e-20)
(1.48946 0.870669 9.07661e-21)
(1.09599 0.967061 -1.03954e-20)
(0.669062 1.02206 1.29785e-20)
(0.196304 0.758663 -2.32972e-20)
(5.36212 0.0176745 0)
(5.35213 0.0200903 0)
(5.3408 0.0225887 0)
(5.32809 0.0252829 0)
(5.3139 0.0282367 -6.53366e-20)
(5.2981 0.0314902 0)
(5.28052 0.0350852 0)
(5.26099 0.0390717 -3.18003e-21)
(5.23929 0.0435067 3.41809e-21)
(5.21524 0.0484486 -1.21338e-20)
(5.18858 0.0539661 -4.83237e-21)
(5.15898 0.0601427 0)
(5.12616 0.067062 -2.54426e-20)
(5.08977 0.0748257 1.35638e-20)
(5.04941 0.083551 4.31028e-20)
(5.00463 0.0933701 -3.40473e-21)
(4.95495 0.104434 3.52038e-20)
(4.89982 0.116916 0)
(4.83864 0.131012 0)
(4.77072 0.14695 -1.39397e-20)
(4.69534 0.164986 -4.37244e-21)
(4.61167 0.185415 -4.17135e-22)
(4.51881 0.208569 5.8285e-21)
(4.41576 0.234826 1.46216e-20)
(4.30147 0.264611 -4.55775e-21)
(4.17475 0.298398 5.03453e-21)
(4.03435 0.336715 0)
(3.87894 0.380141 1.47984e-20)
(3.7071 0.429308 0)
(3.51735 0.48489 2.09397e-20)
(3.3082 0.547597 0)
(3.07811 0.618158 -1.11205e-20)
(2.82559 0.697292 -2.15221e-20)
(2.54921 0.785676 5.28032e-21)
(2.24758 0.88389 -5.86419e-21)
(1.91968 0.992258 -1.3797e-20)
(1.56348 1.11088 0)
(1.1792 1.23472 -8.98961e-21)
(0.757372 1.30587 1.11833e-20)
(0.260844 0.966209 1.42891e-20)
(5.36275 0.0215499 -4.53768e-20)
(5.35291 0.0244863 -5.33909e-21)
(5.34172 0.027529 5.7932e-21)
(5.32917 0.0308086 -6.97776e-21)
(5.31514 0.0344029 3.74295e-21)
(5.29952 0.038362 3.9685e-20)
(5.28215 0.0427368 0)
(5.26284 0.0475876 0)
(5.24139 0.0529838 0)
(5.21762 0.0589957 1.57148e-20)
(5.19127 0.0657065 1.88795e-20)
(5.16202 0.0732184 0)
(5.1296 0.0816322 3.15654e-20)
(5.09368 0.091071 -4.06763e-21)
(5.05384 0.101676 -2.0459e-20)
(5.00966 0.113608 -2.44888e-20)
(4.96067 0.12705 -5.94538e-20)
(4.90633 0.142209 0)
(4.84606 0.159324 -2.15093e-20)
(4.7792 0.178668 -2.59086e-20)
(4.70504 0.200551 -4.10228e-21)
(4.62278 0.225328 9.47762e-21)
(4.53155 0.2534 -1.13834e-20)
(4.43041 0.285221 6.55e-21)
(4.31832 0.321301 0)
(4.19417 0.362212 -1.93141e-20)
(4.05675 0.408588 0)
(3.90479 0.461124 -1.75952e-20)
(3.73694 0.520577 1.60017e-20)
(3.5518 0.587757 -1.50144e-20)
(3.34795 0.663518 2.28382e-20)
(3.12394 0.748734 1.98548e-20)
(2.87837 0.844277 3.9757e-20)
(2.60986 0.950979 0)
(2.3171 1.06958 -5.57501e-21)
(1.99912 1.20057 6.59398e-21)
(1.65393 1.34422 -1.42554e-20)
(1.28117 1.49446 1.70469e-20)
(0.865526 1.58094 -1.0202e-20)
(0.340394 1.16666 -6.27734e-21)
(5.36351 0.0253954 2.58654e-20)
(5.35384 0.0288431 9.65645e-21)
(5.34282 0.0324226 0)
(5.33045 0.0362795 -6.62729e-21)
(5.31663 0.0405053 3.67268e-20)
(5.30123 0.04516 -3.82234e-20)
(5.28408 0.0503034 4.70653e-21)
(5.26504 0.0560061 0)
(5.24388 0.0623493 -3.3106e-21)
(5.22044 0.0694145 3.61507e-21)
(5.19446 0.0772998 -1.81134e-20)
(5.16563 0.086125 1.60351e-20)
(5.1337 0.0960077 3.26384e-20)
(5.09831 0.107092 0)
(5.05909 0.119542 3.83219e-20)
(5.01563 0.133547 2.34021e-20)
(4.96745 0.149317 2.45777e-20)
(4.91405 0.167096 3.32791e-20)
(4.85486 0.187163 4.03498e-20)
(4.78925 0.209833 3.06171e-20)
(4.71653 0.23547 -3.85427e-21)
(4.63594 0.264483 -3.54984e-20)
(4.54665 0.297339 -4.31823e-22)
(4.44776 0.334566 3.13626e-20)
(4.33828 0.376755 -3.0163e-20)
(4.21715 0.424568 1.836e-20)
(4.08324 0.47874 -5.64962e-21)
(3.93534 0.540075 6.22475e-21)
(3.77219 0.609451 -1.54644e-20)
(3.59248 0.687804 0)
(3.39486 0.77612 -3.71067e-20)
(3.17799 0.875418 -3.14831e-20)
(2.94055 0.986711 -7.32554e-21)
(2.68128 1.11098 -1.27047e-20)
(2.39892 1.24913 -2.15468e-22)
(2.09259 1.40179 1.71688e-20)
(1.76035 1.56942 1.32658e-20)
(1.40131 1.74482 0)
(0.992855 1.84547 1.70964e-20)
(0.433988 1.35804 5.58566e-21)
(5.36439 0.0292056 -7.40541e-20)
(5.35493 0.0331539 9.18489e-21)
(5.3441 0.0372616 5.5084e-21)
(5.33194 0.0416863 3.29565e-22)
(5.31836 0.046533 -6.83646e-21)
(5.3032 0.0518719 0)
(5.28633 0.0577711 0)
(5.26759 0.0643111 -4.21617e-20)
(5.24677 0.0715845 -3.0548e-20)
(5.22371 0.0796842 -2.13916e-20)
(5.19816 0.0887218 0)
(5.16981 0.0988348 -2.08726e-20)
(5.13843 0.110157 -4.36138e-20)
(5.10367 0.122851 -7.31618e-21)
(5.06516 0.137107 -3.67602e-20)
(5.02252 0.153135 2.1869e-20)
(4.97528 0.171178 0)
(4.92296 0.191512 -3.21952e-20)
(4.86501 0.214452 -2.43969e-20)
(4.80083 0.240357 5.57226e-21)
(4.72978 0.269637 0)
(4.65111 0.302757 3.79402e-20)
(4.56405 0.340244 4.00355e-22)
(4.46774 0.382694 -5.34569e-20)
(4.36125 0.430775 6.18605e-22)
(4.24359 0.485235 -3.35721e-20)
(4.1137 0.5469 0)
(3.97046 0.616679 0)
(3.81268 0.695559 -2.79756e-20)
(3.63917 0.784595 4.33928e-21)
(3.44867 0.8849 1.52035e-20)
(3.23995 0.997622 0)
(3.0118 1.12391 2.63358e-20)
(2.76306 1.2649 7.26926e-21)
(2.49257 1.42162 1.33439e-20)
(2.19956 1.59485 -1.98341e-20)
(1.88211 1.78526 -1.16033e-20)
(1.53886 1.98436 3.48977e-22)
(1.13846 2.09774 -2.35636e-20)
(0.540617 1.5386 9.8899e-21)
(5.3654 0.0329748 5.16017e-22)
(5.35617 0.0374117 0)
(5.34557 0.0420376 -4.06615e-20)
(5.33365 0.0470192 0)
(5.32032 0.0524749 5.32408e-20)
(5.30545 0.0584847 0)
(5.28889 0.0651252 0)
(5.27049 0.0724857 4.06671e-20)
(5.25005 0.0806704 7.56794e-20)
(5.22742 0.0897827 2.0721e-20)
(5.20235 0.0999473 0)
(5.17455 0.111319 3.92646e-20)
(5.14378 0.124046 2.40027e-20)
(5.10973 0.138311 0)
(5.07203 0.154325 0)
(5.03031 0.172324 -2.1027e-20)
(4.98413 0.192576 -2.49069e-20)
(4.93302 0.21539 3.94151e-21)
(4.87648 0.241114 -4.37875e-21)
(4.81392 0.270149 0)
(4.74473 0.302948 -2.58712e-20)
(4.66822 0.340028 0)
(4.58366 0.381971 3.70298e-20)
(4.49025 0.429438 2.26258e-20)
(4.38712 0.483167 2.0043e-20)
(4.27335 0.543984 1.26313e-20)
(4.14796 0.612801 -4.55162e-21)
(4.00993 0.690622 0)
(3.85817 0.778534 8.33929e-22)
(3.69158 0.877703 3.04317e-20)
(3.50904 0.989356 2.24894e-20)
(3.30943 1.11476 -5.14668e-21)
(3.09165 1.2552 -2.50454e-20)
(2.85468 1.41193 -6.4173e-22)
(2.59746 1.58613 0)
(2.31933 1.7787 1.88867e-20)
(2.01843 1.9905 0)
(1.69288 2.21163 -5.03567e-21)
(1.30123 2.33606 6.74399e-21)
(0.659125 1.70667 0)
(5.36654 0.0366972 6.75326e-20)
(5.35757 0.0416096 0)
(5.3472 0.0467425 2.91661e-20)
(5.33556 0.0522687 5.52895e-20)
(5.32252 0.0583202 -5.41006e-22)
(5.30796 0.0649863 0)
(5.29175 0.0723515 -3.34538e-20)
(5.27372 0.0805138 0)
(5.25371 0.0895886 -3.89952e-20)
(5.23156 0.0996887 4.37649e-22)
(5.20702 0.110952 -7.57034e-21)
(5.17983 0.123549 -5.44511e-21)
(5.14975 0.137644 5.49113e-21)
(5.11648 0.153436 0)
(5.07968 0.171156 4.28451e-21)
(5.03898 0.191065 3.44409e-20)
(4.99397 0.213456 4.75675e-20)
(4.94422 0.238665 -2.82937e-20)
(4.88922 0.267076 3.39414e-20)
(4.82845 0.299124 0)
(4.76132 0.335304 2.4897e-20)
(4.6872 0.376181 0)
(4.6054 0.422388 -3.56122e-20)
(4.51518 0.474643 2.06929e-20)
(4.41575 0.533749 6.50226e-21)
(4.30627 0.600603 2.29162e-20)
(4.18584 0.676195 0)
(4.05354 0.761613 5.38235e-21)
(3.90839 0.858036 1.89238e-20)
(3.74941 0.966729 -1.09948e-21)
(3.5756 1.08902 -1.70415e-20)
(3.38599 1.2263 -4.98854e-21)
(3.17959 1.37994 5.47119e-21)
(2.95553 1.55134 1.18385e-20)
(2.71287 1.7418 -6.7733e-21)
(2.45111 1.95233 -8.13967e-21)
(2.16836 2.18397 -4.60593e-21)
(1.86226 2.42525 2.07504e-20)
(1.47982 2.55882 -5.87668e-21)
(0.788182 1.86069 0)
(5.36781 0.0403671 -6.43298e-20)
(5.35911 0.0457406 7.99659e-21)
(5.34902 0.0513684 -3.71113e-20)
(5.33767 0.0574258 -8.53699e-20)
(5.32495 0.0640584 -4.91791e-20)
(5.31074 0.0713647 -5.57332e-20)
(5.2949 0.0794365 8.73224e-21)
(5.27729 0.0883799 -8.99631e-21)
(5.25775 0.0983211 0)
(5.23612 0.109382 0)
(5.21217 0.121713 7.74518e-21)
(5.18564 0.1355 -4.95744e-20)
(5.15632 0.15092 4.8087e-20)
(5.12391 0.16819 0)
(5.08809 0.187561 4.06838e-21)
(5.0485 0.209313 -3.75565e-20)
(5.00478 0.233765 -2.82132e-20)
(4.9565 0.261279 3.43765e-20)
(4.90319 0.292268 -7.68612e-20)
(4.84437 0.327202 4.68402e-21)
(4.77949 0.366614 -6.04948e-21)
(4.70797 0.411109 6.68966e-21)
(4.62917 0.461369 4.30452e-21)
(4.54243 0.518163 -6.34399e-20)
(4.44702 0.582352 -2.29865e-20)
(4.34218 0.654895 0)
(4.22713 0.736851 3.21173e-20)
(4.10103 0.829384 0)
(3.96304 0.933753 -1.62908e-20)
(3.8123 1.05131 -3.33866e-20)
(3.64794 1.18347 0)
(3.46913 1.33172 -4.55519e-21)
(3.27504 1.49756 4.98948e-21)
(3.06494 1.68245 -7.29116e-21)
(2.83801 1.88784 1.33812e-20)
(2.59396 2.1148 2.14292e-20)
(2.33084 2.36459 0)
(2.04574 2.62395 4.39292e-21)
(1.67274 2.76454 -5.08099e-21)
(0.926292 1.99929 0)
(5.3692 0.0439782 6.86633e-20)
(5.36082 0.0497977 -8.02738e-21)
(5.35101 0.0559072 -2.63707e-20)
(5.33998 0.0624813 4.11381e-20)
(5.32761 0.0696792 -4.04935e-20)
(5.31377 0.0776082 1.00868e-19)
(5.29834 0.0863668 3.90122e-20)
(5.28119 0.0960689 -8.61726e-21)
(5.26215 0.106851 4.5705e-20)
(5.24108 0.118844 -5.75869e-21)
(5.21778 0.132208 0)
(5.19197 0.147146 0)
(5.16346 0.163846 -7.70215e-20)
(5.13198 0.182542 -1.24214e-20)
(5.09722 0.203502 7.18435e-21)
(5.05885 0.227026 4.63905e-21)
(5.01651 0.253454 -4.7404e-20)
(4.96981 0.283174 2.52873e-20)
(4.91834 0.316625 6.12588e-20)
(4.86162 0.354308 0)
(4.79916 0.39679 -1.58615e-20)
(4.73043 0.444713 1.9383e-20)
(4.65486 0.4988 0)
(4.57185 0.559866 3.74499e-20)
(4.48075 0.628821 7.5894e-22)
(4.3809 0.70668 -2.53344e-20)
(4.2716 0.794561 -3.10163e-20)
(4.15214 0.893691 0)
(4.02181 1.0054 9.40284e-22)
(3.87986 1.13111 0)
(3.7256 1.27232 2.74146e-20)
(3.55832 1.43059 -1.57357e-20)
(3.37736 1.60752 4.71562e-21)
(3.18215 1.80464 -6.56118e-21)
(2.97203 2.02354 0)
(2.74689 2.26529 -1.95006e-20)
(2.50471 2.53141 -1.41537e-20)
(2.24194 2.8066 2.23011e-20)
(1.8783 2.95189 -4.16533e-21)
(1.07179 2.12124 5.64149e-21)
(5.37072 0.0475244 0)
(5.36267 0.0537739 -7.69728e-21)
(5.35318 0.0603511 1.80686e-20)
(5.34249 0.0674265 -9.58048e-21)
(5.33049 0.0751728 4.52134e-20)
(5.31705 0.0837056 -5.85018e-20)
(5.30206 0.0931298 3.65187e-20)
(5.2854 0.103566 0)
(5.2669 0.115162 -3.43144e-20)
(5.24644 0.128054 -5.05154e-20)
(5.22382 0.142416 -1.99175e-20)
(5.19879 0.158463 -7.92937e-21)
(5.17116 0.176395 7.34236e-20)
(5.14068 0.19646 5.70194e-21)
(5.10705 0.218943 -7.34352e-21)
(5.06998 0.244163 8.18359e-21)
(5.02912 0.272477 3.5734e-20)
(4.98413 0.304297 -1.86841e-20)
(4.9346 0.340087 -2.93462e-20)
(4.88013 0.380373 4.49802e-21)
(4.82025 0.425753 1.59281e-20)
(4.7545 0.476899 -2.48986e-20)
(4.68236 0.534573 2.86107e-20)
(4.60331 0.599627 -2.9395e-20)
(4.51679 0.673014 1.05537e-20)
(4.42222 0.755793 5.73063e-22)
(4.31902 0.849133 6.85473e-21)
(4.20659 0.954313 2.80301e-20)
(4.08435 1.07272 2.94064e-20)
(3.9517 1.20583 1.62901e-20)
(3.80809 1.35522 -5.14703e-20)
(3.65298 1.52251 9.30371e-22)
(3.48588 1.70935 0)
(3.30639 1.91738 -2.42359e-20)
(3.11399 2.14825 2.51611e-20)
(2.9088 2.40307 1.7654e-20)
(2.68868 2.68356 5.45625e-21)
(2.44937 2.97218 -1.39024e-20)
(2.09468 3.11971 0)
(1.22287 2.22547 -8.3744e-21)
(5.37238 0.0509993 1.29369e-20)
(5.36467 0.0576622 -7.13185e-20)
(5.35551 0.064692 6.62855e-20)
(5.34519 0.0722528 0)
(5.33359 0.0805297 0)
(5.32057 0.0896462 -4.89986e-20)
(5.30605 0.0997131 -2.85777e-20)
(5.28991 0.110858 0)
(5.27199 0.123237 0)
(5.25219 0.136996 4.38919e-20)
(5.2303 0.152317 1.95534e-20)
(5.20609 0.169428 7.57394e-21)
(5.1794 0.18854 -4.27115e-20)
(5.14998 0.209914 5.43138e-21)
(5.11756 0.233851 2.65136e-20)
(5.08186 0.260684 -3.17013e-20)
(5.04258 0.290791 0)
(4.99938 0.3246 -2.26003e-20)
(4.95192 0.362597 0)
(4.89982 0.405333 0)
(4.84267 0.453428 5.04143e-21)
(4.78006 0.507585 -5.5712e-21)
(4.71154 0.568593 -2.77985e-20)
(4.63666 0.637337 -2.91e-21)
(4.55495 0.714804 2.32405e-20)
(4.46593 0.80209 2.2872e-20)
(4.36912 0.900401 3.23447e-20)
(4.26406 1.01106 -3.87753e-20)
(4.15029 1.13549 -4.56097e-21)
(4.02737 1.27523 -3.06704e-20)
(3.8949 1.43188 -4.22162e-21)
(3.75251 1.60712 -1.19162e-20)
(3.59988 1.80267 1.06337e-20)
(3.4368 2.02019 -1.18686e-20)
(3.2629 2.26145 -3.67847e-20)
(3.07855 2.52751 -9.40943e-21)
(2.88141 2.82033 -1.59467e-20)
(2.66636 3.11974 -1.05542e-20)
(2.3199 3.26695 -8.8303e-21)
(1.37758 2.31106 1.19407e-20)
(5.37416 0.0543962 -6.02274e-20)
(5.36683 0.0614555 5.57616e-20)
(5.35801 0.0689223 0)
(5.34808 0.0769519 3.58757e-20)
(5.3369 0.0857407 3.57136e-20)
(5.32433 0.0954195 5.36115e-20)
(5.3103 0.106105 -5.39027e-20)
(5.29472 0.117931 0)
(5.27742 0.131063 0)
(5.2583 0.145652 -4.11936e-20)
(5.23718 0.161891 0)
(5.21385 0.180019 2.94806e-20)
(5.18814 0.200256 4.63096e-21)
(5.15984 0.222877 -5.17392e-21)
(5.1287 0.248195 -3.24876e-20)
(5.09445 0.276556 6.83508e-20)
(5.05682 0.308355 4.72781e-21)
(5.01553 0.344036 1.6776e-20)
(4.97023 0.384104 0)
(4.92062 0.429128 0)
(4.86633 0.47975 -4.73745e-21)
(4.807 0.536695 -1.59633e-20)
(4.74227 0.600774 0)
(4.67175 0.672898 3.07953e-20)
(4.59505 0.75408 -5.27635e-20)
(4.51181 0.845442 0)
(4.42166 0.94822 -2.4879e-20)
(4.32425 1.06376 0)
(4.21927 1.19352 0)
(4.10643 1.33907 1.92827e-20)
(3.98549 1.50204 2.74416e-20)
(3.85627 1.68414 -4.01837e-21)
(3.71861 1.88713 -1.73691e-20)
(3.5725 2.1127 1.91858e-20)
(3.41772 2.36268 1.69366e-20)
(3.25491 2.6381 9.08723e-21)
(3.08153 2.94106 9.53081e-21)
(2.89121 3.2486 9.80455e-21)
(2.55177 3.39284 5.98273e-21)
(1.5338 2.37727 5.81814e-21)
(5.37608 0.0577087 4.71131e-20)
(5.36913 0.0651462 0)
(5.36068 0.0730342 0)
(5.35116 0.0815161 -3.50599e-20)
(5.34041 0.0907971 -7.95333e-20)
(5.32832 0.101016 0)
(5.31482 0.112295 1.01437e-21)
(5.29981 0.124773 7.73241e-21)
(5.28316 0.138624 -8.3726e-21)
(5.26476 0.154007 8.98291e-22)
(5.24446 0.17112 4.70665e-20)
(5.22204 0.190216 -2.88324e-20)
(5.19738 0.211522 0)
(5.17025 0.235323 5.27226e-21)
(5.14044 0.261945 -5.87952e-21)
(5.10771 0.291746 -5.78528e-20)
(5.07182 0.325133 0)
(5.0325 0.362565 4.03328e-20)
(4.98948 0.404562 -2.39489e-20)
(4.94245 0.451707 2.08854e-20)
(4.89114 0.50466 4.63591e-20)
(4.83523 0.564161 1.57748e-20)
(4.77442 0.631041 2.33704e-20)
(4.70841 0.706227 0)
(4.6369 0.790748 3.37806e-20)
(4.55963 0.885744 1.87234e-20)
(4.47634 0.992468 2.74773e-20)
(4.38682 1.11228 -1.29511e-20)
(4.29089 1.24666 -7.09049e-21)
(4.18841 1.39718 -2.06576e-20)
(4.07932 1.56551 -1.85572e-20)
(3.9636 1.75334 4.82693e-20)
(3.84129 1.96247 1.72437e-20)
(3.71257 2.19459 -1.87029e-20)
(3.57739 2.45159 3.39333e-21)
(3.43664 2.73442 -3.68386e-21)
(3.28756 3.04528 3.45235e-21)
(3.12223 3.35823 -3.77735e-21)
(2.78805 3.49668 -7.85005e-21)
(1.68933 2.42351 1.25134e-21)
(5.37814 0.0609324 -3.31565e-20)
(5.37157 0.0687259 -1.25784e-20)
(5.36351 0.0770202 0)
(5.35442 0.0859378 0)
(5.34413 0.0956907 7.2266e-22)
(5.33253 0.106426 -4.33426e-20)
(5.31957 0.118271 7.50645e-21)
(5.30517 0.131371 2.14314e-20)
(5.2892 0.145908 -2.83519e-20)
(5.27156 0.162044 3.40002e-20)
(5.25211 0.179987 -1.15753e-21)
(5.23065 0.2 0)
(5.20707 0.222315 0)
(5.18117 0.247228 0)
(5.15275 0.275074 0)
(5.12161 0.306223 2.78826e-20)
(5.08752 0.341091 0)
(5.05025 0.380149 -4.44876e-20)
(5.00957 0.423928 2.90011e-20)
(4.96524 0.473023 -2.07164e-20)
(4.917 0.528106 -3.65017e-20)
(4.86462 0.589928 1.88494e-20)
(4.80785 0.659331 -1.22622e-20)
(4.74648 0.737251 3.86053e-20)
(4.68031 0.824728 -3.7162e-20)
(4.60916 0.922908 -1.8297e-20)
(4.5329 1.03305 -2.12227e-20)
(4.45145 1.15652 0)
(4.36475 1.29479 1.40242e-20)
(4.27284 1.44944 3.06492e-20)
(4.17582 1.62213 1.36245e-20)
(4.07384 1.81455 -3.34126e-20)
(3.96713 2.02851 -1.10053e-20)
(3.85608 2.26566 1.96388e-20)
(3.7408 2.52794 2.9858e-21)
(3.62244 2.81619 2.83193e-21)
(3.49796 3.13268 -8.26175e-21)
(3.35756 3.44823 0)
(3.02641 3.57801 1.00697e-21)
(1.84181 2.44936 -4.62119e-21)
(5.38036 0.0640648 3.30467e-20)
(5.37415 0.0721876 -6.33558e-21)
(5.3665 0.0808729 -4.90232e-20)
(5.35786 0.0902106 0)
(5.34804 0.100414 4.66149e-20)
(5.33695 0.111641 -1.48047e-20)
(5.32457 0.124025 6.08076e-20)
(5.3108 0.137714 -4.17709e-20)
(5.29553 0.152901 3.56585e-20)
(5.27868 0.169751 -3.16416e-20)
(5.26011 0.188477 -4.41397e-20)
(5.23966 0.209353 0)
(5.2172 0.232616 0)
(5.19257 0.258571 0)
(5.16559 0.28756 -2.15188e-20)
(5.13609 0.319962 -2.55471e-20)
(5.10386 0.356201 3.42931e-20)
(5.06872 0.396756 -4.03133e-20)
(5.03046 0.442167 -2.12067e-20)
(4.98889 0.493037 6.62235e-21)
(4.94381 0.550044 -4.06854e-20)
(4.89504 0.613947 -1.84398e-20)
(4.84242 0.685591 -1.62757e-20)
(4.7858 0.765915 -3.12265e-20)
(4.72507 0.855959 6.70602e-20)
(4.66016 0.956867 -3.99634e-21)
(4.59105 1.06989 -4.82352e-21)
(4.51778 1.19639 2.6048e-20)
(4.44045 1.33783 -1.17394e-20)
(4.35924 1.49575 -1.78568e-20)
(4.27441 1.67181 2.21703e-20)
(4.18631 1.86768 1.3529e-20)
(4.09534 2.08513 0)
(4.00209 2.32578 -1.02293e-20)
(3.90683 2.59159 0)
(3.81101 2.88326 0)
(3.71116 3.2031 8.86233e-21)
(3.59533 3.51834 0)
(3.26443 3.63655 0)
(1.98879 2.45463 0)
(5.38277 0.0670509 -5.18276e-20)
(5.37687 0.0755289 0)
(5.36965 0.084589 1.0882e-19)
(5.36148 0.094327 -6.13915e-20)
(5.35213 0.10496 0)
(5.34158 0.116653 4.61357e-20)
(5.32978 0.129547 -5.65284e-21)
(5.31667 0.143793 6.82625e-21)
(5.30213 0.159593 -7.39828e-21)
(5.2861 0.177114 7.00186e-20)
(5.26845 0.196575 -4.10183e-20)
(5.24902 0.218259 0)
(5.22773 0.242408 -2.89729e-20)
(5.20442 0.269331 4.52621e-21)
(5.17893 0.29938 3.64877e-20)
(5.15111 0.332937 4.28786e-20)
(5.1208 0.370435 -2.26644e-20)
(5.08784 0.412357 3.96866e-20)
(5.05206 0.459248 -4.04376e-21)
(5.01332 0.511715 6.20368e-21)
(4.97147 0.57044 2.20581e-20)
(4.9264 0.63618 0)
(4.87799 0.70978 2.37536e-20)
(4.8262 0.792174 -2.72953e-20)
(4.77099 0.884395 -2.69074e-20)
(4.7124 0.987575 -3.84231e-21)
(4.65051 1.10295 4.21776e-21)
(4.58549 1.23185 -2.03569e-20)
(4.51759 1.37572 1.15089e-20)
(4.44713 1.53607 -1.47329e-20)
(4.37454 1.71451 -1.08811e-20)
(4.30033 1.91267 1.7254e-20)
(4.2251 2.1323 -1.10654e-20)
(4.14964 2.37493 0)
(4.07437 2.64254 5.21252e-21)
(4.00101 2.9356 1.97501e-21)
(3.92561 3.25653 -4.98246e-21)
(3.83361 3.56853 1.38461e-21)
(3.49959 3.67223 -1.77927e-22)
(2.12772 2.43932 -1.15202e-21)
(5.38523 0.0699753 4.07673e-20)
(5.37974 0.0787042 -5.8937e-21)
(5.37301 0.088162 -4.65823e-20)
(5.36527 0.0982829 1.29838e-21)
(5.3564 0.109322 0)
(5.3464 0.121455 -3.84712e-20)
(5.33521 0.134828 0)
(5.32278 0.149598 -6.54823e-21)
(5.30899 0.165972 7.09872e-21)
(5.29381 0.184121 -3.83254e-20)
(5.2771 0.204268 4.52287e-20)
(5.25874 0.226705 0)
(5.23864 0.251674 5.60641e-20)
(5.21668 0.279492 0)
(5.19272 0.310515 -7.53471e-22)
(5.16663 0.34513 -2.97919e-20)
(5.13828 0.383772 6.69299e-21)
(5.10755 0.426928 3.1753e-20)
(5.07431 0.475145 9.13298e-22)
(5.03845 0.529031 0)
(4.99988 0.589263 0)
(4.95855 0.656597 3.96098e-21)
(4.91442 0.731869 -1.82248e-20)
(4.8675 0.816001 2.16931e-20)
(4.81786 0.91001 1.72348e-20)
(4.76562 1.015 0)
(4.71099 1.13219 0)
(4.65424 1.26288 0)
(4.59576 1.40845 1.8674e-20)
(4.53603 1.57039 8.74202e-21)
(4.47562 1.75024 5.84714e-21)
(4.41523 1.94957 -8.02169e-21)
(4.35562 2.17006 1.32329e-21)
(4.29778 2.41316 3.35461e-21)
(4.2423 2.68085 -6.89106e-21)
(4.19116 2.97332 0)
(4.13974 3.29311 0)
(4.07044 3.59893 0)
(3.7293 3.68523 1.08041e-21)
(2.25594 2.40364 -1.94594e-22)
(5.38783 0.0734468 -3.863e-20)
(5.38244 0.0818454 0)
(5.37646 0.0915816 -6.47519e-21)
(5.36923 0.102071 7.27058e-20)
(5.36085 0.113493 3.83428e-22)
(5.35141 0.126039 2.87699e-20)
(5.34084 0.13986 -3.66976e-20)
(5.3291 0.155118 -5.96467e-21)
(5.31609 0.172029 -2.74843e-20)
(5.30177 0.190762 -3.1559e-20)
(5.28604 0.211544 0)
(5.26877 0.234676 1.63124e-20)
(5.2499 0.2604 -2.06633e-20)
(5.22932 0.289039 -2.6868e-20)
(5.20692 0.320949 -4.18351e-20)
(5.1826 0.356521 0)
(5.15625 0.396192 2.53595e-20)
(5.12779 0.44045 -3.5219e-20)
(5.09712 0.489839 5.2869e-21)
(5.06418 0.544963 0)
(5.02894 0.606495 0)
(4.99139 0.675179 -1.38334e-20)
(4.95156 0.751839 0)
(4.90954 0.837378 -1.84064e-20)
(4.86548 0.932789 -2.27368e-20)
(4.8196 1.03915 1.19462e-20)
(4.7722 1.15763 -1.34399e-20)
(4.72369 1.28949 -3.95799e-21)
(4.67457 1.43606 -1.40448e-20)
(4.62547 1.59876 -2.33801e-21)
(4.5771 1.77906 2.54982e-21)
(4.53035 1.97844 -1.39015e-20)
(4.48612 2.19853 6.07798e-21)
(4.44561 2.44063 2.6691e-21)
(4.40954 2.70673 3.60354e-21)
(4.38017 2.99666 5.53861e-22)
(4.35204 3.31313 -5.83349e-22)
(4.30388 3.60983 -1.54073e-23)
(3.95095 3.67599 0)
(2.37064 2.34801 -1.56412e-21)
(5.39043 0.0764741 3.81229e-20)
(5.38538 0.0850011 5.4875e-21)
(5.38 0.0949057 -5.9881e-21)
(5.3733 0.105699 0)
(5.36546 0.11747 0)
(5.35659 0.130398 3.55589e-20)
(5.34667 0.144637 4.69495e-20)
(5.33564 0.160348 -1.17504e-20)
(5.32342 0.177754 3.71267e-20)
(5.30999 0.197026 5.75781e-20)
(5.29525 0.218392 -3.56108e-20)
(5.27909 0.242161 -4.8413e-20)
(5.26147 0.268575 -2.19378e-20)
(5.24231 0.297957 4.88269e-21)
(5.2215 0.330668 -3.77703e-21)
(5.19898 0.367098 1.04163e-20)
(5.17466 0.407682 -7.14776e-21)
(5.14849 0.452908 3.69037e-21)
(5.12042 0.503314 2.94572e-20)
(5.09044 0.559498 -5.033e-21)