/*--------------------------------*- C++ -*----------------------------------*\
  =========                 |
  \\      /  F ield         | OpenFOAM: The Open Source CFD Toolbox
   \\    /   O peration     | Website:  https://openfoam.org
    \\  /    A nd           | Version:  13
     \\/     M anipulation  |
\*---------------------------------------------------------------------------*/
FoamFile
{
    format      ascii;
    class       volVectorField;
    location    "262";
    object      wallShearStress;
}
// * * * * * * * * * * * * * * * * * * * * * * * * * * * * * * * * * * * * * //

dimensions      [0 2 -2 0 0 0 0];

internalField   uniform (0 0 0);

boundaryField
{
    above
    {
        type            calculated;
        value           uniform (0 0 0);
    }
    top
    {
        type            calculated;
        value           uniform (0 0 0);
    }
    inlet
    {
        type            calculated;
        value           uniform (0 0 0);
    }
    outlet
    {
        type            calculated;
        value           uniform (0 0 0);
    }
    plate
    {
        type            calculated;
        value           nonuniform List<vector> 
340
(
(-0.185808 -0.0799358 0)
(-0.180124 -0.229462 -6.99841e-21)
(-0.197505 -0.370559 6.35245e-21)
(-0.229404 -0.513009 1.69425e-20)
(-0.271954 -0.653337 -1.02642e-20)
(-0.324122 -0.789215 4.48912e-21)
(-0.385336 -0.919183 -3.99732e-21)
(-0.454956 -1.04204 -7.08345e-21)
(-0.532238 -1.15668 0)
(-0.616334 -1.26208 0)
(-0.70628 -1.35732 0)
(-0.800993 -1.44159 -4.3289e-21)
(-0.899282 -1.5142 6.18674e-21)
(-0.999855 -1.57454 -8.67425e-21)
(-1.10131 -1.62213 -4.42238e-21)
(-1.20217 -1.65659 -1.0101e-21)
(-1.30086 -1.67764 3.26572e-21)
(-1.39576 -1.68517 0)
(-1.48515 -1.6792 7.26826e-22)
(-1.56726 -1.6599 -2.91597e-22)
(-1.64022 -1.62759 1.07652e-21)
(-1.70211 -1.58302 0)
(-1.75038 -1.52627 0)
(-1.78357 -1.45756 5.18536e-21)
(-1.80093 -1.37764 -8.3754e-21)
(-1.80174 -1.28778 6.70231e-21)
(-1.78522 -1.18971 -7.19921e-21)
(-1.7507 -1.0854 4.01064e-21)
(-1.69783 -0.976926 0)
(-1.62678 -0.866377 -9.46986e-21)
(-1.5383 -0.755869 1.01618e-20)
(-1.43374 -0.647494 -1.64472e-20)
(-1.31512 -0.543277 1.76891e-20)
(-1.18507 -0.445131 -3.19913e-22)
(-1.04683 -0.354801 -1.00531e-20)
(-0.904135 -0.273813 3.63874e-21)
(-0.761065 -0.203426 -3.64252e-21)
(-0.621737 -0.144604 1.97942e-21)
(-0.49022 -0.0981472 1.06829e-21)
(-0.368847 -0.0635617 5.50085e-22)
(-0.268171 -0.0361368 0)
(-0.194224 -0.0172 0)
(-0.139233 -0.00815474 0)
(-0.0978119 -0.00465112 0)
(-0.0659593 -0.00347542 0)
(-0.0408508 -0.0028938 0)
(-0.0206991 -0.00220912 0)
(-0.00448612 -0.00132506 0)
(0.00840603 -0.000418311 0)
(0.0185008 0.000305162 0)
(0.0263512 0.00075578 0)
(0.032488 0.000973494 0)
(0.0373209 0.00106098 0)
(0.0411067 0.00110739 0)
(0.0439823 0.0011543 0)
(0.0460293 0.00120202 0)
(0.0473267 0.0012348 0)
(0.0479669 0.00124161 0)
(0.0480468 0.00122395 0)
(0.0476473 0.00119244 0)
(0.0468197 0.0011582 0)
(0.0455906 0.00112792 0)
(0.0439709 0.00110308 0)
(0.0419675 0.00108184 0)
(0.0395896 0.00106244 0)
(0.0368436 0.00104489 0)
(0.0337322 0.00103003 0)
(0.0302501 0.00101899 0)
(0.0263836 0.00101189 0)
(0.0221207 0.00100675 0)
(0.017453 0.00100304 0)
(0.0123694 0.00100047 0)
(0.00686842 0.000996149 0)
(0.00095858 0.000989457 0)
(-0.00535426 0.00098101 0)
(-0.0120583 0.000968859 0)
(-0.019123 0.000951427 0)
(-0.0265069 0.000928378 0)
(-0.0341573 0.000898784 0)
(-0.0420031 0.000861812 0)
(-0.0499581 0.000817419 0)
(-0.0579244 0.000765976 0)
(-0.0657956 0.000708289 0)
(-0.0734613 0.000645649 0)
(-0.0808135 0.0005797 0)
(-0.0877519 0.000512218 0)
(-0.0941892 0.000445045 0)
(-0.100055 0.0003799 0)
(-0.1053 0.000318322 0)
(-0.109895 0.000261717 0)
(-0.113837 0.000210815 0)
(-0.117137 0.00016565 0)
(-0.119814 0.000126214 0)
(-0.121902 9.25878e-05 0)
(-0.123447 6.4564e-05 0)
(-0.124502 4.16777e-05 0)
(-0.125124 2.33455e-05 0)
(-0.125368 8.96817e-06 0)
(-0.125287 -2.12962e-06 0)
(-0.124929 -1.05883e-05 0)
(-0.124335 -1.68732e-05 0)
(-0.123544 -2.13785e-05 0)
(-0.12259 -2.44694e-05 0)
(-0.121503 -2.6389e-05 0)
(-0.120311 -2.7347e-05 0)
(-0.11904 -2.76086e-05 0)
(-0.117711 -2.73432e-05 0)
(-0.116341 -2.66777e-05 0)
(-0.114946 -2.57321e-05 0)
(-0.113539 -2.45577e-05 0)
(-0.112132 -2.32156e-05 0)
(-0.110739 -2.17905e-05 0)
(-0.109366 -2.03009e-05 0)
(-0.108024 -1.87768e-05 0)
(-0.106721 -1.72403e-05 0)
(-0.105466 -1.57315e-05 0)
(-0.10426 -1.43323e-05 0)
(-0.103101 -1.3054e-05 0)
(-0.101991 -1.17733e-05 0)
(-0.100946 -1.04382e-05 0)
(-0.1 -9.1967e-06 0)
(-0.0991634 -8.0844e-06 0)
(-0.0984207 -7.07241e-06 0)
(-0.097762 -6.22308e-06 0)
(-0.0971702 -5.56788e-06 0)
(-0.0966277 -5.09136e-06 0)
(-0.0961186 -4.77445e-06 0)
(-0.0956284 -4.59305e-06 0)
(-0.0951461 -4.50109e-06 0)
(-0.0946647 -4.45811e-06 0)
(-0.0941814 -4.42412e-06 0)
(-0.0936968 -4.38393e-06 0)
(-0.0932111 -4.34674e-06 0)
(-0.092724 -4.30629e-06 0)
(-0.0922363 -4.25504e-06 0)
(-0.0917497 -4.18465e-06 0)
(-0.0912671 -4.09048e-06 0)
(-0.0907909 -3.98083e-06 0)
(-0.0903226 -3.86221e-06 0)
(-0.0898636 -3.7363e-06 0)
(-0.0894146 -3.60704e-06 0)
(-0.0889763 -3.47261e-06 0)
(-0.0885499 -3.33416e-06 0)
(-0.0881355 -3.20055e-06 0)
(-0.0877328 -3.0723e-06 0)
(-0.0873413 -2.96216e-06 0)
(-0.0869572 -2.87336e-06 0)
(-0.0865798 -2.7829e-06 0)
(-0.0862108 -2.68057e-06 0)
(-0.0858517 -2.5766e-06 0)
(-0.0855023 -2.47532e-06 0)
(-0.0851624 -2.37848e-06 0)
(-0.0848317 -2.28765e-06 0)
(-0.0845095 -2.20044e-06 0)
(-0.0841958 -2.11544e-06 0)
(-0.0838902 -2.03725e-06 0)
(-0.0835919 -1.9662e-06 0)
(-0.0833001 -1.90106e-06 0)
(-0.0830142 -1.8422e-06 0)
(-0.0827333 -1.78836e-06 0)
(-0.082457 -1.73716e-06 0)
(-0.0821851 -1.69065e-06 0)
(-0.0819167 -1.65049e-06 0)
(-0.0816511 -1.61458e-06 0)
(-0.0813878 -1.58196e-06 0)
(-0.0811263 -1.55267e-06 0)
(-0.0808664 -1.52278e-06 0)
(-0.0806085 -1.49236e-06 0)
(-0.0803523 -1.46532e-06 0)
(-0.0800975 -1.44005e-06 0)
(-0.0798439 -1.41545e-06 0)
(-0.0795915 -1.39184e-06 0)
(-0.0793401 -1.36801e-06 0)
(-0.0790902 -1.34241e-06 0)
(-0.0788419 -1.31692e-06 0)
(-0.0785952 -1.29302e-06 0)
(-0.0783499 -1.26977e-06 0)
(-0.078106 -1.24677e-06 0)
(-0.0778635 -1.22447e-06 0)
(-0.0776224 -1.20116e-06 0)
(-0.0773831 -1.17647e-06 0)
(-0.0771459 -1.15262e-06 0)
(-0.0769104 -1.1301e-06 0)
(-0.0766766 -1.108e-06 0)
(-0.0764445 -1.08643e-06 0)
(-0.0762141 -1.06558e-06 0)
(-0.0759852 -1.04382e-06 0)
(-0.0757584 -1.02117e-06 0)
(-0.0755338 -9.99693e-07 0)
(-0.075311 -9.79387e-07 0)
(-0.0750899 -9.59596e-07 0)
(-0.0748706 -9.40388e-07 0)
(-0.074653 -9.21916e-07 0)
(-0.0744369 -9.02949e-07 0)
(-0.0742228 -8.83252e-07 0)
(-0.0740107 -8.64586e-07 0)
(-0.0738004 -8.47014e-07 0)
(-0.0735918 -8.29993e-07 0)
(-0.0733847 -8.13495e-07 0)
(-0.0731792 -7.97686e-07 0)
(-0.0729751 -7.81764e-07 0)
(-0.0727727 -7.65237e-07 0)
(-0.0725721 -7.49204e-07 0)
(-0.0723732 -7.34296e-07 0)
(-0.0721756 -7.19797e-07 0)
(-0.0719796 -7.06464e-07 0)
(-0.0717845 -6.95637e-07 0)
(-0.0715896 -6.8609e-07 0)
(-0.0713952 -6.74015e-07 0)
(-0.0712021 -6.60618e-07 0)
(-0.0710106 -6.47579e-07 0)
(-0.0708204 -6.35287e-07 0)
(-0.0706315 -6.23108e-07 0)
(-0.0704439 -6.11552e-07 0)
(-0.0702574 -6.00256e-07 0)
(-0.070072 -5.88952e-07 0)
(-0.0698879 -5.77017e-07 0)
(-0.0697053 -5.65884e-07 0)
(-0.0695239 -5.55174e-07 0)
(-0.0693437 -5.45104e-07 0)
(-0.0691645 -5.35129e-07 0)
(-0.0689863 -5.25466e-07 0)
(-0.0688092 -5.16139e-07 0)
(-0.068633 -5.06361e-07 0)
(-0.0684581 -4.96383e-07 0)
(-0.0682845 -4.87133e-07 0)
(-0.0681118 -4.78413e-07 0)
(-0.0679401 -4.69808e-07 0)
(-0.0677694 -4.61286e-07 0)
(-0.0675995 -4.53409e-07 0)
(-0.0674305 -4.45203e-07 0)
(-0.0672625 -4.37111e-07 0)
(-0.0670956 -4.28575e-07 0)
(-0.0669298 -4.21064e-07 0)
(-0.0667648 -4.13399e-07 0)
(-0.0666007 -4.06426e-07 0)
(-0.0664375 -3.99082e-07 0)
(-0.066275 -3.92517e-07 0)
(-0.0661133 -3.85379e-07 0)
(-0.0659525 -3.78608e-07 0)
(-0.0657928 -3.71279e-07 0)
(-0.0656339 -3.65096e-07 0)
(-0.0654758 -3.58455e-07 0)
(-0.0653185 -3.52515e-07 0)
(-0.065162 -3.46458e-07 0)
(-0.0650061 -3.40965e-07 0)
(-0.0648507 -3.35822e-07 0)
(-0.0646956 -3.3078e-07 0)
(-0.064541 -3.25905e-07 0)
(-0.0643866 -3.21218e-07 0)
(-0.0642326 -3.16337e-07 0)
(-0.0640791 -3.11655e-07 0)
(-0.0639259 -3.072e-07 0)
(-0.0637729 -3.02928e-07 0)
(-0.0636202 -2.98288e-07 0)
(-0.063468 -2.9333e-07 0)
(-0.0633167 -2.88274e-07 0)
(-0.0631659 -2.83633e-07 0)
(-0.0630157 -2.79092e-07 0)
(-0.062866 -2.74898e-07 0)
(-0.062717 -2.69558e-07 0)
(-0.0625686 -2.66039e-07 0)
(-0.0624206 -2.60901e-07 0)
(-0.0622732 -2.576e-07 0)
(-0.0621264 -2.52014e-07 0)
(-0.0619804 -2.48856e-07 0)
(-0.0618351 -2.43538e-07 0)
(-0.0616903 -2.40933e-07 0)
(-0.0615459 -2.3596e-07 0)
(-0.0614018 -2.33962e-07 0)
(-0.0612581 -2.28889e-07 0)
(-0.0611149 -2.26575e-07 0)
(-0.0609725 -2.20908e-07 0)
(-0.0608308 -2.18904e-07 0)
(-0.0606896 -2.13715e-07 0)
(-0.0605488 -2.11334e-07 0)
(-0.0604086 -2.0769e-07 0)
(-0.060269 -2.04245e-07 0)
(-0.06013 -2.00772e-07 0)
(-0.0599917 -1.97601e-07 0)
(-0.0598575 -1.94371e-07 0)
(-0.0597265 -1.9124e-07 0)
(-0.0595944 -1.88347e-07 0)
(-0.0594615 -1.84918e-07 0)
(-0.0593277 -1.82112e-07 0)
(-0.0591931 -1.78827e-07 0)
(-0.0590574 -1.7621e-07 0)
(-0.0589207 -1.73154e-07 0)
(-0.058783 -1.70397e-07 0)
(-0.0586446 -1.67932e-07 0)
(-0.0585055 -1.6271e-07 0)
(-0.0583657 -1.61962e-07 0)
(-0.058225 -1.57373e-07 0)
(-0.0580835 -1.56397e-07 0)
(-0.0579411 -1.51918e-07 0)
(-0.0577978 -1.50563e-07 0)
(-0.0576539 -1.4671e-07 0)
(-0.0575096 -1.44057e-07 0)
(-0.0573646 -1.41257e-07 0)
(-0.0572189 -1.38847e-07 0)
(-0.0570725 -1.36176e-07 0)
(-0.0569254 -1.3349e-07 0)
(-0.0567777 -1.30828e-07 0)
(-0.0566296 -1.27872e-07 0)
(-0.0564811 -1.2534e-07 0)
(-0.0563321 -1.22868e-07 0)
(-0.0561825 -1.18393e-07 0)
(-0.0560323 -1.18633e-07 0)
(-0.0558818 -1.12633e-07 0)
(-0.0557308 -1.14854e-07 0)
(-0.0555797 -1.0762e-07 0)
(-0.0554281 -1.10655e-07 0)
(-0.0552762 -1.0206e-07 0)
(-0.0551237 -1.07811e-07 0)
(-0.0549712 -1.01449e-07 0)
(-0.0548184 -9.91217e-08 0)
(-0.0546655 -9.60657e-08 0)
(-0.0545123 -9.46654e-08 0)
(-0.0543588 -9.25418e-08 0)
(-0.0542043 -9.14946e-08 0)
(-0.0540495 -8.79785e-08 0)
(-0.0538944 -8.74377e-08 0)
(-0.0537394 -8.43712e-08 0)
(-0.0535844 -7.29589e-08 0)
(-0.0534286 -9.06121e-08 0)
(-0.0532736 -6.92959e-08 0)
(-0.0531178 -9.09175e-08 0)
(-0.052963 -6.20213e-08 0)
(-0.0528069 -8.94896e-08 0)
(-0.0526521 -5.60837e-08 0)
(-0.052496 -8.89899e-08 0)
(-0.0523408 -7.0405e-08 0)
(-0.0521856 -6.64848e-08 0)
(-0.0520294 -6.75439e-08 0)
(-0.0518744 -6.5564e-08 0)
(-0.0517143 -6.47431e-08 0)
(-0.0515674 -6.52729e-08 0)
(-0.0513743 -5.60423e-08 0)
(-0.0513097 -5.78571e-08 0)
(-0.0510138 -7.85027e-08 0)
)
;
    }
    defaultFaces
    {
        type            empty;
    }
}


// ************************************************************************* //
