/*--------------------------------*- C++ -*----------------------------------*\
  =========                 |
  \\      /  F ield         | OpenFOAM: The Open Source CFD Toolbox
   \\    /   O peration     | Website:  https://openfoam.org
    \\  /    A nd           | Version:  13
     \\/     M anipulation  |
\*---------------------------------------------------------------------------*/
FoamFile
{
    format      ascii;
    class       volScalarField;
    location    "286";
    object      k;
}
// * * * * * * * * * * * * * * * * * * * * * * * * * * * * * * * * * * * * * //

dimensions      [0 2 -2 0 0 0 0];

internalField   nonuniform List<scalar> 
26820
(
0.332675
0.29805
0.272317
0.252841
0.237751
0.225813
0.21619
0.332645
0.297976
0.272217
0.252724
0.237624
0.225681
0.21605
0.332585
0.297829
0.272016
0.252492
0.237371
0.225417
0.215769
0.332495
0.297608
0.271716
0.252144
0.236993
0.225022
0.21535
0.332376
0.297315
0.271318
0.251682
0.23649
0.224499
0.214794
0.332227
0.296951
0.270823
0.251108
0.235867
0.22385
0.214105
0.332049
0.296516
0.270233
0.250425
0.235125
0.223078
0.213285
0.331842
0.296011
0.269549
0.249635
0.234268
0.222187
0.21234
0.331608
0.29544
0.268776
0.248741
0.233299
0.221179
0.211274
0.331346
0.294802
0.267914
0.247746
0.232223
0.220061
0.210091
0.331058
0.294101
0.266968
0.246656
0.231044
0.218837
0.208797
0.330743
0.293337
0.26594
0.245473
0.229766
0.217513
0.2074
0.330403
0.292515
0.264834
0.244202
0.228396
0.216093
0.205904
0.330038
0.291634
0.263653
0.242848
0.226938
0.214583
0.204316
0.32965
0.290699
0.262402
0.241415
0.225398
0.212991
0.202643
0.32924
0.289712
0.261083
0.239908
0.223781
0.211321
0.200892
0.328807
0.288676
0.259702
0.238333
0.222093
0.209579
0.199069
0.328354
0.287591
0.25826
0.236691
0.220338
0.207769
0.19718
0.32788
0.286459
0.256757
0.234984
0.21852
0.205891
0.195236
0.327386
0.28528
0.255198
0.233216
0.216645
0.203932
0.1933
0.207952
0.200559
0.194268
0.188877
0.184229
0.180201
0.176695
0.173635
0.170962
0.16863
0.166603
0.164857
0.16338
0.162168
0.161234
0.160602
0.160337
0.160406
0.16073
0.1613
0.162131
0.163244
0.164671
0.166453
0.168643
0.171308
0.174534
0.178436
0.183163
0.188918
0.19598
0.204745
0.215799
0.230061
0.249045
0.275893
0.312539
0.31343
0.146129
0.0499239
0.207826
0.20045
0.194175
0.188797
0.18416
0.180141
0.176642
0.173589
0.170922
0.168594
0.16657
0.164828
0.163353
0.162144
0.161211
0.16058
0.160316
0.160387
0.160713
0.161285
0.162116
0.16323
0.164658
0.16644
0.168629
0.171292
0.174517
0.178417
0.183141
0.188892
0.195948
0.204704
0.215746
0.229989
0.248948
0.275759
0.312344
0.313414
0.149162
0.0565048
0.207575
0.200234
0.193989
0.188638
0.184022
0.180021
0.176537
0.173497
0.170841
0.168522
0.166507
0.164772
0.163303
0.162099
0.16117
0.160543
0.160282
0.160358
0.160687
0.161263
0.162098
0.163215
0.164645
0.16643
0.168621
0.171287
0.174513
0.178414
0.183139
0.188889
0.195943
0.204696
0.215731
0.229963
0.248904
0.275694
0.312228
0.313436
0.153504
0.0652296
0.207199
0.19991
0.193712
0.188399
0.183816
0.179841
0.176381
0.17336
0.17072
0.168415
0.166413
0.164688
0.163229
0.162033
0.161112
0.160491
0.160237
0.160318
0.160654
0.161236
0.162077
0.163199
0.164635
0.166425
0.168622
0.171292
0.174524
0.178431
0.183161
0.188917
0.195976
0.204734
0.215772
0.230007
0.248949
0.275743
0.312233
0.313419
0.157938
0.0739892
0.206702
0.199481
0.193343
0.188082
0.183542
0.179603
0.176173
0.173177
0.170559
0.168274
0.166287
0.164577
0.16313
0.161946
0.161035
0.160423
0.160177
0.160268
0.160612
0.161202
0.162051
0.163181
0.164624
0.166421
0.168625
0.171304
0.174544
0.178458
0.183198
0.188963
0.196033
0.204802
0.215853
0.230101
0.249061
0.27588
0.312312
0.313278
0.161947
0.082051
0.206084
0.198948
0.192886
0.187688
0.183201
0.179306
0.175913
0.17295
0.170359
0.168097
0.166131
0.164439
0.163008
0.161837
0.160939
0.160339
0.160104
0.160206
0.160561
0.161161
0.16202
0.163159
0.164611
0.166418
0.168632
0.17132
0.17457
0.178496
0.183248
0.189027
0.196112
0.204898
0.21597
0.230243
0.249236
0.276101
0.312452
0.312984
0.165387
0.0892857
0.20535
0.198314
0.192341
0.187219
0.182795
0.178953
0.175604
0.172679
0.17012
0.167886
0.165944
0.164273
0.162861
0.161707
0.160824
0.160239
0.160016
0.160133
0.160501
0.161114
0.161984
0.163134
0.164598
0.166416
0.168641
0.171342
0.174605
0.178545
0.183312
0.189109
0.196215
0.205025
0.216126
0.230435
0.249477
0.276408
0.31265
0.312536
0.16826
0.0957724
0.204503
0.197581
0.191712
0.186676
0.182324
0.178544
0.175247
0.172364
0.169843
0.167642
0.165728
0.164082
0.162692
0.161557
0.160692
0.160123
0.159916
0.160048
0.160433
0.16106
0.161944
0.163108
0.164585
0.166416
0.168655
0.17137
0.174649
0.178606
0.183392
0.189211
0.196342
0.205182
0.21632
0.230677
0.249784
0.276802
0.312905
0.31193
0.170619
0.101635
0.203546
0.196754
0.191
0.186062
0.181792
0.17808
0.174841
0.172008
0.169529
0.167364
0.165483
0.163864
0.162499
0.161387
0.160542
0.159992
0.159802
0.159954
0.160356
0.161
0.161899
0.163079
0.164571
0.166418
0.168673
0.171404
0.174701
0.178678
0.183487
0.189331
0.196493
0.20537
0.216553
0.230969
0.250156
0.277283
0.313209
0.311163
0.172521
0.106984
0.202485
0.195834
0.190208
0.185379
0.181199
0.177563
0.174388
0.171611
0.169179
0.167055
0.165208
0.163621
0.162284
0.161197
0.160374
0.159846
0.159676
0.159848
0.160271
0.160934
0.161851
0.163048
0.164558
0.166422
0.168695
0.171445
0.174763
0.178763
0.183597
0.189472
0.196668
0.205589
0.216825
0.231311
0.250593
0.27785
0.313557
0.310229
0.174018
0.111912
0.201323
0.194828
0.189341
0.184629
0.180548
0.176995
0.173891
0.171173
0.168793
0.166714
0.164907
0.163354
0.162047
0.160987
0.16019
0.159685
0.159537
0.159733
0.160178
0.160862
0.1618
0.163016
0.164545
0.166429
0.168722
0.171494
0.174834
0.17886
0.183724
0.189632
0.196869
0.205838
0.217136
0.231702
0.251097
0.278502
0.313942
0.309123
0.175156
0.116488
0.200067
0.193737
0.1884
0.183815
0.179841
0.176378
0.17335
0.170697
0.168373
0.166342
0.164578
0.163062
0.161788
0.160759
0.159989
0.159509
0.159386
0.159608
0.160078
0.160785
0.161745
0.162983
0.164533
0.166438
0.168754
0.17155
0.174916
0.17897
0.183867
0.189813
0.197095
0.20612
0.217488
0.232145
0.251667
0.27924
0.314354
0.307792
0.175959
0.120765
0.198722
0.192568
0.18739
0.182941
0.179081
0.175714
0.172767
0.170184
0.167921
0.165942
0.164223
0.162747
0.161509
0.160512
0.159772
0.15932
0.159223
0.159474
0.159971
0.160704
0.161688
0.162949
0.164523
0.166452
0.168792
0.171614
0.175008
0.179094
0.184027
0.190015
0.197348
0.206435
0.21788
0.232641
0.252307
0.280064
0.314782
0.306015
0.176387
0.124784
0.197293
0.191325
0.186315
0.182009
0.178269
0.175004
0.172144
0.169636
0.167436
0.165513
0.163842
0.16241
0.16121
0.160248
0.15954
0.159118
0.159049
0.159331
0.159857
0.160618
0.161628
0.162915
0.164514
0.166469
0.168836
0.171686
0.175112
0.179233
0.184205
0.19024
0.197628
0.206783
0.218316
0.23319
0.253017
0.280971
0.315214
0.303831
0.176448
0.128579
0.195787
0.190012
0.185178
0.181022
0.177409
0.174252
0.171483
0.169053
0.166921
0.165056
0.163438
0.162051
0.160892
0.159967
0.159292
0.158903
0.158865
0.15918
0.159738
0.160528
0.161567
0.162881
0.164508
0.16649
0.168886
0.171768
0.175228
0.179386
0.184402
0.190488
0.197937
0.207167
0.218795
0.233795
0.253801
0.281963
0.315635
0.3013
0.17617
0.132179
0.194208
0.188635
0.183984
0.179984
0.176504
0.173458
0.170786
0.168438
0.166377
0.164574
0.16301
0.161671
0.160556
0.159669
0.159031
0.158676
0.158671
0.159022
0.159613
0.160435
0.161504
0.162849
0.164504
0.166517
0.168945
0.17186
0.175356
0.179556
0.184619
0.19076
0.198276
0.207588
0.21932
0.234458
0.254661
0.283039
0.316032
0.298461
0.175582
0.13561
0.192564
0.187199
0.182737
0.178899
0.175556
0.172627
0.170054
0.167791
0.165805
0.164067
0.16256
0.161272
0.160202
0.159356
0.158756
0.158437
0.158467
0.158856
0.159484
0.16034
0.161441
0.162817
0.164505
0.16655
0.169011
0.171962
0.175499
0.179743
0.184857
0.191058
0.198646
0.208048
0.219894
0.235182
0.255601
0.2842
0.31639
0.295343
0.174715
0.138893
0.190861
0.185709
0.181441
0.17777
0.174568
0.17176
0.16929
0.167116
0.165207
0.163537
0.162089
0.160854
0.159831
0.159029
0.158469
0.158188
0.158254
0.158684
0.15935
0.160242
0.161379
0.162788
0.164509
0.166589
0.169086
0.172077
0.175656
0.179948
0.185117
0.191383
0.19905
0.208549
0.220519
0.235972
0.256625
0.285442
0.31669
0.291959
0.173599
0.142097
0.189094
0.184166
0.180101
0.176601
0.173544
0.170859
0.168496
0.166414
0.164584
0.162984
0.161598
0.160418
0.159444
0.158687
0.158169
0.157928
0.158034
0.158507
0.159214
0.160144
0.161317
0.162762
0.164519
0.166635
0.169172
0.172204
0.175829
0.180172
0.185401
0.191737
0.199489
0.209093
0.221198
0.236829
0.257738
0.286765
0.31691
0.288316
0.172239
0.144476
0.187363
0.182578
0.178705
0.17539
0.172486
0.169929
0.167674
0.165686
0.163939
0.162411
0.161088
0.159965
0.159043
0.158333
0.157858
0.157659
0.157806
0.158326
0.159075
0.160046
0.161257
0.16274
0.164535
0.16669
0.169268
0.172344
0.176018
0.180417
0.18571
0.192122
0.199965
0.209682
0.221933
0.237759
0.258944
0.288166
0.317026
0.284415
0.170632
0.146011
0.185212
0.181133
0.177353
0.174153
0.171394
0.168968
0.166826
0.164935
0.163272
0.161818
0.160561
0.159496
0.158627
0.157966
0.157537
0.157382
0.157572
0.15814
0.158935
0.159948
0.161199
0.162722
0.164557
0.166754
0.169376
0.1725
0.176226
0.180685
0.186046
0.192539
0.20048
0.210321
0.22273
0.238768
0.26025
0.289644
0.317007
0.280252
0.16878
0.146944
0.183083
0.17955
0.176004
0.172912
0.170276
0.167981
0.165954
0.164163
0.162586
0.161207
0.160018
0.159013
0.158199
0.157588
0.157206
0.157097
0.157333
0.157952
0.158794
0.159851
0.161145
0.16271
0.164588
0.166829
0.169497
0.172671
0.176453
0.180975
0.18641
0.192991
0.201038
0.211012
0.223592
0.239859
0.261662
0.291194
0.316821
0.275818
0.166709
0.147472
0.18103
0.177852
0.174613
0.171667
0.169144
0.16697
0.16506
0.16337
0.161881
0.16058
0.15946
0.158517
0.157759
0.1572
0.156867
0.156806
0.157089
0.157762
0.158654
0.159757
0.161096
0.162705
0.164627
0.166915
0.169632
0.17286
0.176702
0.181292
0.186806
0.19348
0.201642
0.211758
0.224523
0.241041
0.263186
0.292807
0.316425
0.271102
0.16432
0.147896
0.179035
0.176095
0.173164
0.170407
0.168002
0.165942
0.164145
0.162559
0.16116
0.159938
0.158888
0.158008
0.157308
0.156802
0.15652
0.156508
0.156841
0.157571
0.158515
0.159667
0.161053
0.162708
0.164677
0.167013
0.169783
0.173068
0.176973
0.181636
0.187234
0.194009
0.202294
0.212565
0.22553
0.24232
0.264828
0.294473
0.315775
0.266079
0.161476
0.148471
0.177074
0.174318
0.171664
0.169122
0.166851
0.164901
0.163214
0.161731
0.160424
0.159283
0.158304
0.157489
0.156847
0.156396
0.156166
0.156206
0.15659
0.15738
0.158379
0.159582
0.161016
0.162719
0.164738
0.167126
0.169951
0.173296
0.17727
0.182009
0.187698
0.194581
0.202999
0.213436
0.226618
0.243703
0.266595
0.296171
0.314814
0.260719
0.158168
0.14919
0.175128
0.17254
0.170129
0.16781
0.165689
0.163851
0.16227
0.160889
0.159675
0.158615
0.157708
0.156959
0.156378
0.155983
0.155807
0.1559
0.156338
0.157191
0.158247
0.159502
0.160987
0.162741
0.164811
0.167254
0.170137
0.173547
0.177592
0.182415
0.1882
0.1952
0.20376
0.214377
0.227795
0.2452
0.268494
0.297877
0.313481
0.254914
0.154594
0.150006
0.173189
0.170769
0.168571
0.166472
0.164513
0.162792
0.161315
0.160035
0.158914
0.157936
0.157104
0.156421
0.155901
0.155564
0.155443
0.155591
0.156086
0.157005
0.158119
0.15943
0.160968
0.162774
0.164899
0.167399
0.170344
0.173822
0.177944
0.182855
0.188744
0.195868
0.204582
0.215394
0.229067
0.246821
0.270528
0.299556
0.311712
0.248655
0.150874
0.150883
0.171253
0.169007
0.167004
0.165113
0.163324
0.161726
0.160353
0.159172
0.158142
0.157249
0.15649
0.155875
0.155417
0.155139
0.155075
0.15528
0.155835
0.156822
0.157999
0.159367
0.160959
0.162821
0.165002
0.167563
0.170573
0.174123
0.178328
0.183333
0.189333
0.196591
0.205471
0.216493
0.230443
0.248577
0.272699
0.301162
0.309409
0.242033
0.147063
0.151794
0.169321
0.167254
0.165434
0.163741
0.162122
0.160653
0.159385
0.158301
0.157363
0.156553
0.15587
0.155323
0.154929
0.15471
0.154705
0.154969
0.155585
0.156642
0.157886
0.159313
0.160962
0.162882
0.165123
0.167747
0.170826
0.174454
0.178745
0.183851
0.189971
0.197373
0.206431
0.217682
0.231934
0.250479
0.275008
0.302665
0.306431
0.235102
0.14321
0.152714
0.167394
0.165512
0.163866
0.162359
0.16091
0.159574
0.158412
0.157424
0.156577
0.155851
0.155244
0.154766
0.154436
0.154279
0.154333
0.154658
0.15534
0.156467
0.157781
0.159271
0.16098
0.162959
0.165263
0.167954
0.171107
0.174816
0.1792
0.184414
0.190662
0.19822
0.207471
0.21897
0.233551
0.25254
0.277451
0.304086
0.302502
0.227827
0.139366
0.153616
0.165475
0.16378
0.162305
0.160974
0.159691
0.158489
0.157436
0.156544
0.155787
0.155144
0.154613
0.154205
0.15394
0.153845
0.153961
0.15435
0.155099
0.1563
0.157688
0.159242
0.161012
0.163054
0.165424
0.168185
0.171416
0.175211
0.179695
0.185025
0.191411
0.199136
0.208597
0.220365
0.235307
0.254776
0.280096
0.305258
0.297604
0.220209
0.135585
0.154469
0.163568
0.162061
0.160754
0.159591
0.158469
0.157402
0.156458
0.155661
0.154994
0.154434
0.153979
0.153642
0.153443
0.153411
0.15359
0.154044
0.154864
0.156142
0.157607
0.159227
0.161062
0.163169
0.165608
0.168444
0.171756
0.175645
0.180234
0.185688
0.192223
0.20013
0.209818
0.22188
0.237214
0.257225
0.282933
0.306028
0.291754
0.212267
0.13192
0.155231
0.161677
0.160355
0.159214
0.158213
0.157246
0.156312
0.155479
0.154778
0.154199
0.153722
0.153344
0.153077
0.152945
0.152978
0.153222
0.153744
0.154638
0.155995
0.15754
0.15923
0.161131
0.163306
0.165817
0.168732
0.172132
0.176119
0.180822
0.18641
0.193104
0.201207
0.211143
0.223525
0.239295
0.259922
0.285918
0.306229
0.284966
0.204039
0.128426
0.155854
0.159803
0.158665
0.157688
0.156842
0.156025
0.155224
0.1545
0.153895
0.153404
0.153009
0.152708
0.152512
0.152447
0.152547
0.152857
0.15345
0.154422
0.155861
0.157489
0.159251
0.161221
0.163467
0.166055
0.169053
0.172546
0.176638
0.181463
0.187194
0.194061
0.202377
0.212581
0.225314
0.241575
0.262899
0.288978
0.30568
0.277264
0.195576
0.125122
0.156278
0.157952
0.156992
0.156178
0.155483
0.15481
0.154138
0.153524
0.153015
0.152611
0.152298
0.152073
0.151949
0.151952
0.152119
0.152498
0.153164
0.154218
0.155743
0.157458
0.159292
0.161334
0.163655
0.166323
0.169409
0.173001
0.177206
0.182162
0.188047
0.195101
0.203649
0.214146
0.227265
0.244091
0.266179
0.291997
0.304191
0.268708
0.18692
0.12179
0.156423
0.156124
0.15534
0.154685
0.154137
0.153602
0.153056
0.152552
0.152138
0.151821
0.151589
0.15144
0.151388
0.15146
0.151695
0.152145
0.152888
0.154028
0.155644
0.157448
0.159357
0.161473
0.163873
0.166625
0.169805
0.173502
0.177827
0.182924
0.188977
0.196234
0.205033
0.21585
0.229402
0.246884
0.269769
0.294806
0.301562
0.259394
0.178118
0.11843
0.156213
0.154323
0.15371
0.153212
0.152806
0.152405
0.151982
0.151585
0.151266
0.151035
0.150884
0.15081
0.15083
0.150973
0.151278
0.151801
0.152625
0.153854
0.155566
0.157463
0.159446
0.16164
0.164122
0.166964
0.170243
0.174053
0.178507
0.183756
0.18999
0.197467
0.206541
0.217712
0.231755
0.250002
0.273643
0.297177
0.297587
0.249456
0.169227
0.115082
0.155587
0.152551
0.152104
0.151759
0.151492
0.151221
0.150915
0.150624
0.150399
0.150255
0.150184
0.150186
0.150278
0.150492
0.150869
0.151468
0.152375
0.1537
0.155512
0.157504
0.159564
0.161838
0.164407
0.167344
0.170729
0.174659
0.179253
0.184665
0.191096
0.198814
0.208189
0.21975
0.234363
0.253495
0.27773
0.298803
0.292101
0.239053
0.16032
0.111786
0.154519
0.150808
0.150524
0.150329
0.150196
0.15005
0.14986
0.149672
0.149541
0.149482
0.14949
0.149568
0.149733
0.150018
0.150469
0.151147
0.152142
0.15357
0.155485
0.157574
0.159713
0.162071
0.164731
0.167769
0.171267
0.175326
0.18007
0.18566
0.192305
0.200287
0.209992
0.221992
0.237279
0.257404
0.281886
0.299363
0.285052
0.228123
0.151485
0.108575
0.153038
0.149103
0.148977
0.148926
0.148924
0.148897
0.148818
0.148731
0.148692
0.148717
0.148804
0.148957
0.149195
0.149553
0.150079
0.150838
0.151927
0.153463
0.155485
0.157673
0.159892
0.162338
0.165094
0.168239
0.171858
0.176056
0.180962
0.186745
0.193624
0.201895
0.211965
0.224469
0.240565
0.261737
0.285872
0.298527
0.276591
0.216629
0.142801
0.105479
0.151313
0.32693
0.28459
0.254409
0.232379
0.215804
0.202989
0.192886
0.32693
0.284591
0.254414
0.232387
0.215818
0.20299
0.192939
0.32693
0.284594
0.254422
0.232401
0.21584
0.203019
0.192976
0.32693
0.284596
0.254427
0.232411
0.215854
0.203037
0.192999
0.32693
0.284597
0.254431
0.232418
0.215865
0.203052
0.193018
0.32693
0.284599
0.254435
0.232425
0.215874
0.203063
0.193031
0.326931
0.2846
0.254438
0.232429
0.21588
0.203071
0.193039
0.326931
0.2846
0.254439
0.232431
0.215883
0.203074
0.193043
0.326931
0.284601
0.254439
0.232432
0.215884
0.203074
0.193042
0.326931
0.284601
0.254439
0.232431
0.215883
0.203072
0.193039
0.326931
0.2846
0.254438
0.232429
0.21588
0.203068
0.193034
0.326931
0.2846
0.254437
0.232427
0.215876
0.203063
0.193027
0.32693
0.284599
0.254435
0.232424
0.215872
0.203058
0.19302
0.32693
0.284598
0.254434
0.232422
0.215868
0.203052
0.193013
0.32693
0.284598
0.254433
0.232419
0.215865
0.203047
0.193007
0.32693
0.284597
0.254431
0.232417
0.215861
0.203043
0.193001
0.32693
0.284597
0.25443
0.232416
0.215859
0.20304
0.192997
0.32693
0.284597
0.25443
0.232414
0.215857
0.203037
0.192993
0.32693
0.284597
0.254429
0.232413
0.215855
0.203035
0.19299
0.32693
0.284596
0.254429
0.232412
0.215854
0.203033
0.192988
0.32693
0.284596
0.254428
0.232411
0.215853
0.203031
0.192986
0.32693
0.284596
0.254428
0.232411
0.215852
0.203031
0.192985
0.32693
0.284596
0.254428
0.232411
0.215851
0.20303
0.192984
0.32693
0.284596
0.254428
0.23241
0.215851
0.203029
0.192983
0.32693
0.284596
0.254427
0.23241
0.215851
0.203029
0.192982
0.32693
0.284596
0.254427
0.23241
0.21585
0.203029
0.192981
0.32693
0.284596
0.254427
0.23241
0.21585
0.203029
0.192981
0.32693
0.284596
0.254427
0.23241
0.21585
0.203028
0.192981
0.32693
0.284596
0.254427
0.23241
0.21585
0.203028
0.19298
0.32693
0.284596
0.254427
0.23241
0.21585
0.203028
0.19298
0.32693
0.284596
0.254427
0.23241
0.21585
0.203028
0.192979
0.32693
0.284596
0.254427
0.23241
0.21585
0.203028
0.192979
0.32693
0.284596
0.254427
0.23241
0.21585
0.203028
0.192978
0.32693
0.284596
0.254427
0.23241
0.21585
0.203029
0.192978
0.32693
0.284596
0.254427
0.23241
0.21585
0.203029
0.192977
0.32693
0.284596
0.254427
0.23241
0.21585
0.203029
0.192977
0.32693
0.284596
0.254427
0.23241
0.21585
0.203029
0.192976
0.32693
0.284596
0.254427
0.23241
0.21585
0.203029
0.192976
0.32693
0.284596
0.254427
0.23241
0.21585
0.203029
0.192975
0.32693
0.284596
0.254427
0.23241
0.215849
0.203029
0.192974
0.187416
0.185456
0.183481
0.181471
0.179429
0.177361
0.175275
0.17318
0.171084
0.168992
0.166912
0.164847
0.162803
0.160783
0.158792
0.156832
0.154906
0.153018
0.151167
0.149365
0.187371
0.185327
0.183272
0.181198
0.179109
0.177011
0.17491
0.17281
0.170717
0.168636
0.166569
0.164521
0.162495
0.160495
0.158522
0.15658
0.154671
0.152797
0.150959
0.149166
0.187409
0.185367
0.183316
0.181249
0.179167
0.177076
0.174981
0.172885
0.170796
0.168715
0.166649
0.1646
0.162572
0.160569
0.158593
0.156648
0.154735
0.152858
0.151016
0.149219
0.187432
0.185387
0.183334
0.181265
0.17918
0.177087
0.174989
0.172891
0.170799
0.168717
0.166649
0.164599
0.16257
0.160566
0.15859
0.156643
0.15473
0.152852
0.15101
0.149212
0.18745
0.185403
0.183348
0.181276
0.179191
0.177096
0.174996
0.172898
0.170805
0.168722
0.166654
0.164603
0.162573
0.160568
0.158591
0.156645
0.154731
0.152852
0.151009
0.149211
0.187462
0.185413
0.183356
0.181282
0.179195
0.177099
0.174998
0.172899
0.170805
0.168721
0.166652
0.1646
0.16257
0.160565
0.158587
0.15664
0.154725
0.152846
0.151002
0.149203
0.187469
0.185417
0.183358
0.181283
0.179194
0.177096
0.174994
0.172894
0.170799
0.168715
0.166644
0.164592
0.162562
0.160556
0.158578
0.15663
0.154715
0.152836
0.150991
0.149192
0.187471
0.185417
0.183356
0.181278
0.179188
0.177089
0.174986
0.172884
0.170789
0.168704
0.166633
0.16458
0.16255
0.160543
0.158565
0.156617
0.154702
0.152822
0.150978
0.149179
0.187468
0.185412
0.183349
0.18127
0.179178
0.177077
0.174973
0.172871
0.170775
0.168689
0.166618
0.164565
0.162534
0.160528
0.158549
0.156601
0.154686
0.152806
0.150962
0.149162
0.187463
0.185404
0.183338
0.181258
0.179164
0.177062
0.174957
0.172854
0.170757
0.168671
0.1666
0.164547
0.162516
0.16051
0.158532
0.156584
0.154669
0.152789
0.150944
0.149145
0.187455
0.185394
0.183326
0.181243
0.179148
0.177045
0.174939
0.172835
0.170738
0.168652
0.16658
0.164527
0.162496
0.16049
0.158512
0.156565
0.15465
0.15277
0.150926
0.149127
0.187447
0.185382
0.183312
0.181227
0.17913
0.177026
0.174919
0.172815
0.170718
0.168631
0.16656
0.164507
0.162476
0.160471
0.158493
0.156546
0.154631
0.152752
0.150909
0.14911
0.187437
0.18537
0.183297
0.18121
0.179112
0.177006
0.174899
0.172794
0.170696
0.16861
0.166538
0.164486
0.162456
0.16045
0.158473
0.156527
0.154613
0.152735
0.150892
0.149094
0.187428
0.185357
0.183282
0.181193
0.179093
0.176986
0.174878
0.172772
0.170674
0.168588
0.166517
0.164465
0.162435
0.160431
0.158454
0.156509
0.154596
0.152718
0.150876
0.149079
0.187419
0.185345
0.183266
0.181175
0.179073
0.176965
0.174856
0.17275
0.170652
0.168566
0.166495
0.164444
0.162415
0.160411
0.158436
0.156491
0.15458
0.152703
0.150862
0.149065
0.187412
0.185333
0.183251
0.181158
0.179054
0.176945
0.174835
0.172728
0.17063
0.168544
0.166474
0.164423
0.162395
0.160393
0.158419
0.156475
0.154565
0.152689
0.150849
0.149054
0.187404
0.185322
0.183236
0.18114
0.179034
0.176923
0.174813
0.172706
0.170608
0.168522
0.166452
0.164403
0.162376
0.160374
0.158402
0.15646
0.154551
0.152677
0.150838
0.149044
0.187398
0.18531
0.183221
0.181122
0.179014
0.176902
0.17479
0.172683
0.170585
0.168499
0.166431
0.164382
0.162356
0.160356
0.158385
0.156445
0.154537
0.152665
0.150828
0.149036
0.187392
0.185299
0.183206
0.181104
0.178993
0.176879
0.174766
0.172659
0.170561
0.168476
0.166408
0.164361
0.162336
0.160338
0.158369
0.15643
0.154525
0.152655
0.15082
0.149029
0.187387
0.185288
0.18319
0.181084
0.178971
0.176856
0.174742
0.172634
0.170536
0.168452
0.166385
0.164339
0.162316
0.16032
0.158352
0.156416
0.154513
0.152645
0.150812
0.149024
0.187381
0.185277
0.183174
0.181064
0.178948
0.17683
0.174715
0.172607
0.170509
0.168426
0.16636
0.164315
0.162295
0.1603
0.158335
0.156401
0.1545
0.152635
0.150805
0.149019
0.187376
0.185265
0.183156
0.181042
0.178923
0.176803
0.174687
0.172578
0.17048
0.168398
0.166334
0.164291
0.162272
0.16028
0.158317
0.156386
0.154488
0.152625
0.150798
0.149015
0.187371
0.185252
0.183138
0.181018
0.178896
0.176774
0.174656
0.172547
0.170449
0.168368
0.166305
0.164264
0.162248
0.160258
0.158299
0.15637
0.154475
0.152616
0.150791
0.149011
0.187366
0.185238
0.183117
0.180993
0.178867
0.176742
0.174623
0.172513
0.170416
0.168335
0.166274
0.164235
0.162221
0.160235
0.158278
0.156353
0.154462
0.152606
0.150785
0.149008
0.18736
0.185223
0.183095
0.180965
0.178834
0.176707
0.174586
0.172475
0.170379
0.168299
0.16624
0.164204
0.162193
0.16021
0.158257
0.156335
0.154448
0.152595
0.150778
0.149005
0.187354
0.185207
0.183071
0.180934
0.178799
0.176668
0.174546
0.172434
0.170338
0.16826
0.166203
0.164169
0.162161
0.160182
0.158233
0.156316
0.154432
0.152584
0.150771
0.149002
0.187348
0.185189
0.183044
0.1809
0.17876
0.176626
0.174501
0.172389
0.170294
0.168217
0.166162
0.164131
0.162127
0.160152
0.158207
0.156294
0.154415
0.152572
0.150764
0.148999
0.187341
0.18517
0.183014
0.180863
0.178717
0.176579
0.174452
0.17234
0.170245
0.16817
0.166117
0.16409
0.162089
0.160118
0.158178
0.15627
0.154397
0.152559
0.150756
0.148996
0.187333
0.185149
0.182982
0.180822
0.17867
0.176528
0.174399
0.172285
0.170191
0.168117
0.166067
0.164044
0.162048
0.160081
0.158146
0.156244
0.154376
0.152544
0.150747
0.148993
0.187325
0.185125
0.182946
0.180777
0.178618
0.176471
0.174339
0.172225
0.170131
0.168059
0.166013
0.163993
0.162002
0.160041
0.158112
0.156216
0.154354
0.152528
0.150737
0.14899
0.187316
0.185099
0.182906
0.180727
0.17856
0.176408
0.174274
0.172158
0.170065
0.167996
0.165952
0.163937
0.161951
0.159996
0.158074
0.156184
0.15433
0.152511
0.150727
0.148986
0.187306
0.18507
0.182863
0.180672
0.178497
0.176339
0.174201
0.172085
0.169992
0.167925
0.165886
0.163875
0.161895
0.159947
0.158031
0.15615
0.154303
0.152492
0.150716
0.148982
0.187295
0.185038
0.182815
0.180611
0.178427
0.176263
0.174121
0.172004
0.169912
0.167848
0.165812
0.163807
0.161834
0.159892
0.157985
0.156111
0.154273
0.15247
0.150703
0.148978
0.187282
0.185003
0.182761
0.180544
0.178349
0.176179
0.174033
0.171914
0.169823
0.167762
0.165731
0.163732
0.161765
0.159832
0.157933
0.156069
0.15424
0.152447
0.150689
0.148973
0.187269
0.184964
0.182702
0.18047
0.178264
0.176085
0.173935
0.171815
0.169725
0.167667
0.165641
0.163649
0.16169
0.159766
0.157876
0.156022
0.154204
0.152421
0.150674
0.148968
0.187254
0.184921
0.182637
0.180388
0.178169
0.175982
0.173828
0.171706
0.169617
0.167563
0.165542
0.163557
0.161607
0.159692
0.157814
0.155971
0.154163
0.152393
0.150657
0.148962
0.187237
0.184874
0.182566
0.180297
0.178065
0.175869
0.173709
0.171585
0.169498
0.167447
0.165433
0.163456
0.161515
0.159612
0.157744
0.155914
0.154119
0.152361
0.150638
0.148956
0.187219
0.184822
0.182486
0.180197
0.17795
0.175744
0.173578
0.171452
0.169366
0.16732
0.165313
0.163344
0.161414
0.159522
0.157668
0.155851
0.15407
0.152326
0.150617
0.148949
0.187198
0.184764
0.182399
0.180087
0.177823
0.175605
0.173433
0.171305
0.169221
0.167179
0.165179
0.16322
0.161302
0.159423
0.157583
0.155781
0.154016
0.152288
0.150594
0.148941
0.187176
0.1847
0.182302
0.179965
0.177682
0.175452
0.173273
0.171143
0.16906
0.167024
0.165032
0.163084
0.161179
0.159314
0.15749
0.155704
0.153956
0.152245
0.150569
0.148933
0.14931
0.146206
0.143424
0.141413
0.140077
0.139194
0.138576
0.138107
0.137729
0.137421
0.137175
0.13698
0.136821
0.136689
0.136572
0.136469
0.136376
0.136299
0.136238
0.136182
0.136131
0.136086
0.136048
0.136015
0.135988
0.135966
0.135948
0.135935
0.135924
0.135917
0.135912
0.135908
0.135905
0.135901
0.135898
0.135893
0.135887
0.135878
0.135867
0.135853
0.135835
0.135813
0.135786
0.135756
0.135721
0.135682
0.135639
0.135594
0.135545
0.135495
0.135442
0.135387
0.13533
0.135273
0.135215
0.135157
0.135098
0.13504
0.134983
0.134926
0.134872
0.134818
0.134767
0.134717
0.134669
0.134621
0.134574
0.134528
0.134483
0.13444
0.134399
0.13436
0.134325
0.134291
0.13426
0.134231
0.134204
0.134179
0.134156
0.134134
0.102721
0.100521
0.0987719
0.0974479
0.0964546
0.0956773
0.0950307
0.0944739
0.0939941
0.0935805
0.0932142
0.0928732
0.0925416
0.0922128
0.0918881
0.0915716
0.0912658
0.0909543
0.0906328
0.0903295
0.0900537
0.0898072
0.0895939
0.0894157
0.0892679
0.0891474
0.0890523
0.0889793
0.088925
0.0888854
0.0888558
0.0888311
0.0888074
0.0887813
0.0887494
0.0887085
0.0886552
0.0885865
0.0884994
0.0883914
0.0882601
0.0881037
0.0879216
0.0877137
0.0874812
0.0872258
0.0869501
0.0866568
0.0863483
0.0860263
0.0856927
0.0853493
0.0849979
0.0846403
0.0842777
0.083911
0.0835451
0.0831831
0.0828275
0.0824804
0.0821435
0.0818178
0.0815035
0.0811995
0.0809033
0.0806124
0.080326
0.0800452
0.0797729
0.0795118
0.0792643
0.0790315
0.0788136
0.0786103
0.0784212
0.0782462
0.0780845
0.0779357
0.077798
0.0776648
0.134995
0.128794
0.123399
0.118764
0.114833
0.111534
0.108784
0.1065
0.104598
0.102996
0.101623
0.100416
0.0993235
0.0983098
0.0973561
0.0964564
0.0956119
0.0948214
0.0940822
0.0933985
0.0927757
0.0922164
0.0917233
0.0913009
0.0909491
0.0906629
0.0904385
0.0902666
0.0901387
0.0900455
0.0899745
0.0899129
0.0898511
0.0897812
0.0896951
0.0895843
0.0894408
0.0892574
0.089027
0.0887432
0.0884006
0.0879953
0.0875259
0.0869931
0.0863997
0.0857505
0.085052
0.0843115
0.0835341
0.082724
0.0818862
0.0810252
0.080145
0.0792504
0.0783461
0.0774365
0.0765288
0.0756299
0.0747462
0.0738832
0.0730448
0.0722336
0.0714505
0.0706923
0.0699531
0.0692266
0.068511
0.0678095
0.067129
0.0664767
0.0658579
0.0652758
0.0647307
0.0642218
0.0637485
0.0633103
0.0629052
0.0625326
0.0621873
0.0618533
0.20572
0.19658
0.187915
0.179775
0.172206
0.165223
0.158854
0.153121
0.147924
0.143236
0.139035
0.135294
0.131969
0.129019
0.12641
0.124103
0.122062
0.120249
0.118635
0.117194
0.115907
0.114763
0.113757
0.112886
0.112148
0.111535
0.111036
0.110637
0.110326
0.110085
0.109888
0.109715
0.109551
0.109383
0.109193
0.108966
0.108688
0.108343
0.107918
0.1074
0.106779
0.106048
0.105203
0.104245
0.103179
0.102014
0.100759
0.0994281
0.0980274
0.0965648
0.0950493
0.093489
0.0918912
0.0902635
0.0886161
0.0869593
0.0853052
0.0836661
0.0820534
0.0804767
0.0789433
0.0774579
0.0760216
0.0746285
0.0732673
0.0719274
0.0706065
0.0693114
0.0680549
0.0668501
0.0657066
0.0646302
0.0636214
0.0626788
0.0618014
0.0609886
0.0602366
0.0595445
0.0589023
0.0582796
0.268153
0.260835
0.253559
0.246319
0.239127
0.231945
0.224804
0.217775
0.210924
0.204316
0.197983
0.191982
0.18636
0.181148
0.176384
0.171961
0.167867
0.164107
0.160684
0.157594
0.154831
0.152386
0.150245
0.148387
0.146784
0.145411
0.144239
0.143246
0.142406
0.141691
0.141069
0.14052
0.140026
0.139561
0.139097
0.13861
0.138073
0.137462
0.136753
0.135926
0.134961
0.133848
0.13258
0.131156
0.129582
0.127867
0.126024
0.124067
0.121999
0.119831
0.117577
0.115245
0.112847
0.110394
0.107903
0.105392
0.102882
0.10039
0.0979342
0.0955275
0.093181
0.0909017
0.0886905
0.0865369
0.0844233
0.082336
0.0802745
0.0782525
0.0762903
0.0744076
0.0726189
0.0709324
0.0693487
0.0678663
0.0664844
0.0652023
0.0640144
0.0629195
0.0619004
0.0609076
0.296531
0.293865
0.290308
0.286053
0.281327
0.276363
0.271358
0.26637
0.261398
0.256447
0.251442
0.246373
0.241269
0.236178
0.231154
0.226243
0.221485
0.216903
0.212536
0.208418
0.204579
0.201041
0.197804
0.194782
0.191971
0.189382
0.187024
0.184895
0.18299
0.181294
0.17979
0.178451
0.177246
0.176136
0.17508
0.174044
0.172991
0.171881
0.170681
0.169364
0.167909
0.166298
0.164524
0.162584
0.160479
0.158217
0.155808
0.153264
0.150584
0.147776
0.144847
0.141802
0.138654
0.135423
0.132132
0.128808
0.125478
0.122165
0.118889
0.115668
0.112515