/*--------------------------------*- C++ -*----------------------------------*\
  =========                 |
  \\      /  F ield         | OpenFOAM: The Open Source CFD Toolbox
   \\    /   O peration     | Website:  https://openfoam.org
    \\  /    A nd           | Version:  13
     \\/     M anipulation  |
\*---------------------------------------------------------------------------*/
FoamFile
{
    format      ascii;
    class       volScalarField;
    location    "286";
    object      nut;
}
// * * * * * * * * * * * * * * * * * * * * * * * * * * * * * * * * * * * * * //

dimensions      [0 2 -1 0 0 0 0];

internalField   nonuniform List<scalar> 
26820
(
0.000179091
0.000177509
0.000176208
0.000175144
0.000174269
0.000173541
0.000172929
0.00017909
0.000177506
0.000176203
0.000175138
0.000174261
0.000173533
0.00017292
0.000179087
0.000177499
0.000176192
0.000175125
0.000174246
0.000173516
0.000172902
0.000179083
0.000177488
0.000176176
0.000175105
0.000174224
0.000173492
0.000172875
0.000179078
0.000177475
0.000176156
0.000175079
0.000174194
0.000173459
0.000172839
0.000179072
0.000177457
0.00017613
0.000175047
0.000174157
0.000173418
0.000172794
0.000179064
0.000177437
0.000176099
0.000175008
0.000174112
0.000173369
0.00017274
0.000179056
0.000177413
0.000176063
0.000174964
0.000174061
0.000173313
0.000172678
0.000179046
0.000177385
0.000176022
0.000174913
0.000174002
0.000173249
0.000172608
0.000179035
0.000177355
0.000175977
0.000174856
0.000173937
0.000173177
0.000172529
0.000179022
0.000177321
0.000175927
0.000174794
0.000173865
0.000173099
0.000172443
0.000179009
0.000177285
0.000175872
0.000174726
0.000173787
0.000173013
0.000172349
0.000178995
0.000177245
0.000175813
0.000174652
0.000173703
0.000172921
0.000172248
0.000178979
0.000177203
0.00017575
0.000174573
0.000173612
0.000172822
0.00017214
0.000178963
0.000177158
0.000175683
0.00017449
0.000173516
0.000172717
0.000172025
0.000178946
0.00017711
0.000175611
0.000174401
0.000173415
0.000172606
0.000171904
0.000178927
0.000177059
0.000175536
0.000174308
0.000173308
0.00017249
0.000171776
0.000178908
0.000177007
0.000175457
0.00017421
0.000173196
0.000172367
0.000171643
0.000178888
0.000176951
0.000175374
0.000174106
0.000173079
0.000172237
0.000171505
0.000178867
0.000176892
0.000175287
0.000173998
0.000172956
0.000172102
0.000171375
0.000172387
0.000171884
0.000171443
0.000171057
0.000170717
0.000170418
0.000170157
0.000169929
0.000169732
0.000169566
0.00016943
0.000169325
0.000169254
0.000169221
0.00016924
0.000169336
0.000169567
0.000150367
0.00012279
0.000100462
8.23404e-05
6.75835e-05
5.55707e-05
4.57948e-05
3.78377e-05
3.13599e-05
2.60869e-05
2.1796e-05
1.83069e-05
1.54737e-05
1.31792e-05
1.13301e-05
9.85417e-06
8.6964e-06
7.82746e-06
7.2265e-06
6.91771e-06
5.94538e-06
4.58812e-07
1.8545e-08
0.000172379
0.000171877
0.000171437
0.000171051
0.000170712
0.000170414
0.000170152
0.000169925
0.000169729
0.000169563
0.000169427
0.000169322
0.000169251
0.000169218
0.000169237
0.000169333
0.000169564
0.000150891
0.000123248
0.000100842
8.26499e-05
6.78369e-05
5.57796e-05
4.5968e-05
3.79819e-05
3.14806e-05
2.61884e-05
2.18821e-05
1.83803e-05
1.5537e-05
1.32343e-05
1.13784e-05
9.89682e-06
8.73425e-06
7.8599e-06
7.25196e-06
6.92605e-06
5.93521e-06
4.66767e-07
2.09896e-08
0.000172362
0.000171861
0.000171423
0.000171039
0.000170701
0.000170404
0.000170144
0.000169918
0.000169722
0.000169557
0.000169422
0.000169317
0.000169246
0.000169214
0.000169233
0.000169329
0.00016956
0.000151113
0.00012343
0.000100991
8.27729e-05
6.79402e-05
5.58676e-05
4.60438e-05
3.80477e-05
3.15383e-05
2.62395e-05
2.19275e-05
1.8421e-05
1.55736e-05
1.32675e-05
1.14087e-05
9.92435e-06
8.75887e-06
7.88097e-06
7.26738e-06
6.92834e-06
5.93223e-06
4.79585e-07
2.42305e-08
0.000172336
0.000171839
0.000171404
0.000171021
0.000170686
0.000170391
0.000170132
0.000169907
0.000169713
0.000169548
0.000169414
0.000169311
0.00016924
0.000169208
0.000169228
0.000169324
0.000169556
0.000151198
0.000123503
0.000101058
8.28374e-05
6.80006e-05
5.59236e-05
4.60956e-05
3.80957e-05
3.15825e-05
2.62801e-05
2.19648e-05
1.84553e-05
1.56051e-05
1.32963e-05
1.1435e-05
9.94828e-06
8.78006e-06
7.89932e-06
7.28177e-06
6.93525e-06
5.94112e-06
4.92619e-07
2.74844e-08
0.000172303
0.000171809
0.000171377
0.000170998
0.000170665
0.000170372
0.000170116
0.000169892
0.0001697
0.000169537
0.000169404
0.000169301
0.000169232
0.000169201
0.000169221
0.000169319
0.000169551
0.000151467
0.00012374
0.000101268
8.30227e-05
6.81636e-05
5.60668e-05
4.62214e-05
3.82062e-05
3.16797e-05
2.63657e-05
2.20403e-05
1.85221e-05
1.56643e-05
1.3349e-05
1.1482e-05
9.99026e-06
8.81737e-06
7.9327e-06
7.31177e-06
6.95997e-06
5.96673e-06
5.03808e-07
3.04791e-08
0.000172261
0.000171772
0.000171344
0.000170969
0.000170639
0.00017035
0.000170096
0.000169874
0.000169684
0.000169523
0.000169391
0.00016929
0.000169222
0.000169192
0.000169214
0.000169313
0.000169546
0.000151783
0.000124026
0.000101521
8.32469e-05
6.83613e-05
5.62408e-05
4.63744e-05
3.83408e-05
3.17981e-05
2.64699e-05
2.21321e-05
1.86031e-05
1.5736e-05
1.34127e-05
1.15386e-05
1.00409e-05
8.86268e-06
7.9738e-06
7.35004e-06
6.99418e-06
6.00003e-06
5.12552e-07
3.31665e-08
0.000172211
0.000171727
0.000171305
0.000170934
0.000170609
0.000170322
0.000170072
0.000169853
0.000169665
0.000169506
0.000169376
0.000169277
0.00016921
0.000169182
0.000169205
0.000169305
0.00016954
0.000152115
0.000124328
0.000101794
8.34911e-05
6.85785e-05
5.64334e-05
4.65449e-05
3.84914e-05
3.1931e-05
2.65873e-05
2.22357e-05
1.86947e-05
1.5817e-05
1.34845e-05
1.16025e-05
1.00981e-05
8.91387e-06
8.02051e-06
7.39404e-06
7.03484e-06
6.03842e-06
5.18837e-07
3.55761e-08
0.000172153
0.000171675
0.000171259
0.000170894
0.000170573
0.000170291
0.000170044
0.000169828
0.000169643
0.000169486
0.000169359
0.000169261
0.000169197
0.00016917
0.000169194
0.000169297
0.000169534
0.000152483
0.000124666
0.000102101
8.37675e-05
6.88255e-05
5.66533e-05
4.674e-05
3.86641e-05
3.20837e-05
2.67221e-05
2.23548e-05
1.87998e-05
1.59099e-05
1.35669e-05
1.16757e-05
1.01635e-05
8.9726e-06
8.07431e-06
7.44494e-06
7.08291e-06
6.08328e-06
5.22842e-07
3.77537e-08
0.000172088
0.000171617
0.000171208
0.000170849
0.000170533
0.000170255
0.000170012
0.0001698
0.000169618
0.000169464
0.000169339
0.000169244
0.000169181
0.000169156
0.000169183
0.000169287
0.000169526
0.000152896
0.000125046
0.000102446
8.408e-05
6.91057e-05
5.69032e-05
4.69621e-05
3.8861e-05
3.22579e-05
2.6876e-05
2.24908e-05
1.892e-05
1.60162e-05
1.3661e-05
1.17594e-05
1.02384e-05
9.04001e-06
8.13629e-06
7.50374e-06
7.13941e-06
6.13612e-06
5.24793e-07
3.97409e-08
0.000172015
0.000171552
0.00017115
0.000170798
0.000170488
0.000170215
0.000169976
0.000169768
0.000169589
0.000169439
0.000169317
0.000169224
0.000169164
0.000169141
0.00016917
0.000169277
0.000169519
0.000153355
0.000125468
0.000102831
8.44283e-05
6.94187e-05
5.7183e-05
4.72113e-05
3.90822e-05
3.24538e-05
2.70494e-05
2.26441e-05
1.90555e-05
1.61362e-05
1.37675e-05
1.18542e-05
1.03233e-05
9.1166e-06
8.20695e-06
7.57083e-06
7.20497e-06
6.19827e-06
5.24905e-07
4.15714e-08
0.000171934
0.00017148
0.000171086
0.000170742
0.000170438
0.000170171
0.000169937
0.000169734
0.000169559
0.000169411
0.000169292
0.000169203
0.000169145
0.000169124
0.000169156
0.000169265
0.000169511
0.00015386
0.000125934
0.000103255
8.48131e-05
6.97649e-05
5.74931e-05
4.74879e-05
3.93281e-05
3.2672e-05
2.72427e-05
2.28152e-05
1.92071e-05
1.62705e-05
1.38868e-05
1.19605e-05
1.04187e-05
9.20288e-06
8.28666e-06
7.64638e-06
7.28007e-06
6.27258e-06
5.23375e-07
4.32711e-08
0.000171847
0.000171402
0.000171017
0.000170681
0.000170384
0.000170123
0.000169895
0.000169696
0.000169525
0.000169382
0.000169266
0.000169179
0.000169124
0.000169106
0.00016914
0.000169253
0.000169502
0.000154414
0.000126444
0.000103721
8.52354e-05
7.01454e-05
5.78342e-05
4.77927e-05
3.95995e-05
3.29132e-05
2.74567e-05
2.3005e-05
1.93753e-05
1.64198e-05
1.40196e-05
1.20791e-05
1.05253e-05
9.29952e-06
8.37589e-06
7.73116e-06
7.36526e-06
6.30161e-06
5.20317e-07
4.48599e-08
0.000171753
0.000171317
0.000170943
0.000170615
0.000170326
0.000170072
0.000169849
0.000169655
0.000169489
0.000169349
0.000169237
0.000169154
0.000169102
0.000169087
0.000169124
0.00016924
0.000169493
0.000155016
0.000127
0.000104228
8.56965e-05
7.05611e-05
5.82074e-05
4.81265e-05
3.98973e-05
3.31782e-05
2.76922e-05
2.32141e-05
1.9561e-05
1.65849e-05
1.41667e-05
1.22107e-05
1.06439e-05
9.40731e-06
8.47532e-06
7.8274e-06
7.46124e-06
6.08939e-06
5.15597e-07
4.6353e-08
0.000171652
0.000171227
0.000170863
0.000170544
0.000170263
0.000170016
0.000169799
0.000169611
0.000169449
0.000169314
0.000169206
0.000169126
0.000169078
0.000169066
0.000169106
0.000169226
0.000169483
0.000155668
0.000127603
0.000104779
8.61971e-05
7.10128e-05
5.86134e-05
4.84902e-05
4.02221e-05
3.34677e-05
2.79499e-05
2.34433e-05
1.97649e-05
1.67665e-05
1.43289e-05
1.23561e-05
1.07752e-05
9.52711e-06
8.58589e-06
7.93595e-06
7.56939e-06
5.86457e-06
5.09313e-07
4.77628e-08
0.000171545
0.000171131
0.000170778
0.000170469
0.000170197
0.000169957
0.000169747
0.000169564
0.000169408
0.000169277
0.000169174
0.000169098
0.000169052
0.000169044
0.000169087
0.000169212
0.000169473
0.000156371
0.000128253
0.000105373
8.67379e-05
7.15014e-05
5.9053e-05
4.88845e-05
4.05749e-05
3.37827e-05
2.82307e-05
2.36935e-05
1.9988e-05
1.69655e-05
1.4507e-05
1.25161e-05
1.092e-05
9.65975e-06
8.70859e-06
8.05728e-06
7.69095e-06
5.62909e-06
5.01624e-07
4.91e-08
0.000171432
0.00017103
0.000170688
0.00017039
0.000170126
0.000169895
0.000169691
0.000169515
0.000169364
0.000169238
0.000169139
0.000169067
0.000169025
0.000169021
0.000169068
0.000169196
0.000169464
0.000157124
0.000128951
0.000106012
8.73198e-05
7.20276e-05
5.95271e-05
4.93103e-05
4.09564e-05
3.41239e-05
2.85356e-05
2.39657e-05
2.0231e-05
1.71829e-05
1.4702e-05
1.26917e-05
1.10793e-05
9.80607e-06
8.84438e-06
8.1919e-06
7.8268e-06
5.3848e-06
4.92695e-07
5.03744e-08
0.000171313
0.000170924
0.000170594
0.000170306
0.000170052
0.000169829
0.000169633
0.000169463
0.000169317
0.000169197
0.000169102
0.000169035
0.000168997
0.000168996
0.000169047
0.000169181
0.000169453
0.000157929
0.000129697
0.000106696
8.79434e-05
7.25922e-05
6.00364e-05
4.97685e-05
4.13676e-05
3.44924e-05
2.88654e-05
2.42608e-05
2.04952e-05
1.74197e-05
1.49147e-05
1.28838e-05
1.12539e-05
9.96698e-06
8.99428e-06
8.3407e-06
7.9781e-06
5.1335e-06
4.82682e-07
5.1594e-08
0.000171189
0.000170813
0.000170496
0.000170219
0.000169975
0.00016976
0.000169572
0.000169408
0.000169269
0.000169154
0.000169064
0.000169001
0.000168967
0.00016897
0.000169026
0.000169164
0.000169443
0.000158787
0.000130493
0.000107426
8.86096e-05
7.31961e-05
6.05819e-05
5.026e-05
4.18095e-05
3.48891e-05
2.92212e-05
2.45799e-05
2.07815e-05
1.76769e-05
1.51465e-05
1.30936e-05
1.14451e-05
1.01435e-05
9.1594e-06
8.50477e-06
8.14648e-06
4.87689e-06
4.71732e-07
5.27839e-08
0.000171059
0.000170696
0.000170393
0.000170128
0.000169894
0.000169688
0.000169508
0.000169351
0.000169218
0.000169109
0.000169024
0.000168965
0.000168936
0.000168944
0.000169004
0.000169148
0.000169433
0.000159697
0.000131339
0.000108202
8.9319e-05
7.38399e-05
6.11644e-05
5.07857e-05
4.22831e-05
3.53152e-05
2.96043e-05
2.49241e-05
2.10911e-05
1.79557e-05
1.53984e-05
1.33223e-05
1.1654e-05
1.03368e-05
9.34103e-06
8.68557e-06
8.33396e-06
4.61658e-06
4.59921e-07
5.36677e-08
0.000170933
0.000170577
0.000170286
0.000170033
0.00016981
0.000169614
0.000169441
0.000169292
0.000169165
0.000169062
0.000168982
0.000168929
0.000168904
0.000168916
0.000168981
0.000169131
0.000169424
0.000160661
0.000132236
0.000109026
9.00724e-05
7.45246e-05
6.17848e-05
5.13467e-05
4.27895e-05
3.57717e-05
3.00156e-05
2.52948e-05
2.14253e-05
1.82576e-05
1.56718e-05
1.35712e-05
1.18819e-05
1.05483e-05
9.54059e-06
8.88477e-06
8.54305e-06
4.35417e-06
4.47302e-07
5.4238e-08
0.000170773
0.000170468
0.000170182
0.000169936
0.000169723
0.000169536
0.000169372
0.000169231
0.000169111
0.000169013
0.000168939
0.000168891
0.000168871
0.000168888
0.000168957
0.000169114
0.000169415
0.00016168
0.000133185
0.000109897
9.08703e-05
7.52509e-05
6.24441e-05
5.1944e-05
4.33297e-05
3.62599e-05
3.04566e-05
2.56932e-05
2.17856e-05
1.85839e-05
1.59683e-05
1.38418e-05
1.21305e-05
1.07795e-05
9.7597e-06
9.10428e-06
8.77688e-06
4.09108e-06
4.33921e-07
5.45847e-08
0.000170612
0.000170347
0.000170077
0.000169839
0.000169634
0.000169456
0.000169301
0.000169167
0.000169054
0.000168963
0.000168895
0.000168852
0.000168837
0.000168858
0.000168933
0.000169097
0.000169406
0.000162756
0.000134186
0.000110817
9.17136e-05
7.60196e-05
6.31431e-05
5.25785e-05
4.3905e-05
3.6781e-05
3.09286e-05
2.61208e-05
2.21733e-05
1.89363e-05
1.62893e-05
1.41358e-05
1.24015e-05
1.1032e-05
1.00003e-05
9.34636e-06
9.03974e-06
3.82914e-06
4.20034e-07
5.47806e-08
0.000170457
0.000170216
0.000169967
0.00016974
0.000169543
0.000169374
0.000169228
0.000169102
0.000168996
0.000168912
0.000168849
0.000168812
0.000168802
0.000168829
0.000168909
0.00016908
0.000169398
0.000163889
0.00013524
0.000111785
9.26027e-05
7.68315e-05
6.38829e-05
5.32515e-05
4.45164e-05
3.73364e-05
3.1433e-05
2.65792e-05
2.25903e-05
1.93163e-05
1.66368e-05
1.4455e-05
1.26967e-05
1.13079e-05
1.02645e-05
9.61372e-06
9.33722e-06
3.56871e-06
4.04269e-07
5.49381e-08
0.000170305
0.00017008
0.000169853
0.000169639
0.000169451
0.000169291
0.000169153
0.000169035
0.000168937
0.000168859
0.000168803
0.00016877
0.000168766
0.000168798
0.000168885
0.000169063
0.000169391
0.000165085
0.000136347
0.000112801
9.35381e-05
7.76873e-05
6.46643e-05
5.39639e-05
4.51654e-05
3.79274e-05
3.19713e-05
2.70698e-05
2.30381e-05
1.97259e-05
1.70126e-05
1.48015e-05
1.30183e-05
1.16094e-05
1.0555e-05
9.90972e-06
9.67481e-06
3.31036e-06
3.85442e-07
5.51519e-08
0.000170154
0.000169941
0.000169733
0.000169535
0.000169357
0.000169205
0.000169076
0.000168966
0.000168876
0.000168805
0.000168755
0.000168728
0.00016873
0.000168767
0.00016886
0.000169046
0.000169386
0.000166343
0.000137507
0.000113866
9.45205e-05
7.8588e-05
6.54884e-05
5.4717e-05
4.58531e-05
3.85554e-05
3.25451e-05
2.75946e-05
2.35187e-05
2.01672e-05
1.7419e-05
1.51777e-05
1.33689e-05
1.19393e-05
1.08751e-05
1.024e-05
1.0059e-05
3.04645e-06
3.64732e-07
5.54189e-08
0.000170003
0.000169801
0.00016961
0.000169428
0.000169262
0.000169119
0.000168998
0.000168897
0.000168813
0.000168749
0.000168706
0.000168686
0.000168693
0.000168736
0.000168835
0.00016903
0.000169382
0.000167678
0.000138718
0.000114978
9.55501e-05
7.95344e-05
6.63561e-05
5.55117e-05
4.65808e-05
3.92219e-05
3.3156e-05
2.81552e-05
2.40341e-05
2.06422e-05
1.78583e-05
1.5586e-05
1.37512e-05
1.23004e-05
1.12284e-05
1.06119e-05
1.04881e-05
2.82842e-06
3.42436e-07
5.57221e-08
0.00016985
0.00016966
0.000169485
0.000169318
0.000169165
0.000169031
0.000168919
0.000168825
0.00016875
0.000168693
0.000168656
0.000168642
0.000168655
0.000168704
0.00016881
0.000169015
0.00016938
0.000169111
0.00013999
0.000116136
9.66273e-05
8.05273e-05
6.72684e-05
5.63494e-05
4.73499e-05
3.99284e-05
3.38058e-05
2.87537e-05
2.45865e-05
2.11534e-05
1.83331e-05
1.60292e-05
1.41682e-05
1.26962e-05
1.16193e-05
1.10329e-05
1.09635e-05
2.66226e-06
3.19591e-07
5.60477e-08
0.000169696
0.000169519
0.000169358
0.000169207
0.000169066
0.000168942
0.000168838
0.000168753
0.000168686
0.000168636
0.000168606
0.000168598
0.000168617
0.000168673
0.000168786
0.000169001
0.00016938
0.000169964
0.000141327
0.000117348
9.77534e-05
8.15676e-05
6.82264e-05
5.7231e-05
4.81616e-05
4.06766e-05
3.44962e-05
2.93921e-05
2.51781e-05
2.17033e-05
1.88464e-05
1.65106e-05
1.46235e-05
1.31304e-05
1.20535e-05
1.15034e-05
1.15136e-05
2.5198e-06
2.97369e-07
5.6386e-08
0.000169541
0.000169377
0.000169229
0.000169093
0.000168965
0.000168852
0.000168757
0.00016868
0.00016862
0.000168578
0.000168555
0.000168554
0.000168579
0.000168641
0.000168762
0.000168988
0.000169382
0.00016999
0.000142727
0.00011862
9.89309e-05
8.26564e-05
6.92309e-05
5.81578e-05
4.90174e-05
4.14678e-05
3.52292e-05
3.00725e-05
2.58115e-05
2.22948e-05
1.94011e-05
1.70335e-05
1.51205e-05
1.36064e-05
1.25369e-05
1.20234e-05
1.18806e-05
2.38049e-06
2.76519e-07
5.67277e-08
0.000169385
0.000169234
0.0001691
0.000168978
0.000168864
0.000168761
0.000168675
0.000168606
0.000168555
0.00016852
0.000168503
0.000168509
0.000168541
0.000168609
0.000168739
0.000168977
0.000169388
0.00017002
0.000144177
0.000119955
0.000100162
8.37943e-05
7.02828e-05
5.91307e-05
4.99184e-05
4.23038e-05
3.60065e-05
3.07972e-05
2.64891e-05
2.29308e-05
2.00007e-05
1.76017e-05
1.56638e-05
1.41283e-05
1.30755e-05
1.26014e-05
1.13724e-05
2.23319e-06
2.57423e-07
5.7063e-08
0.000169228
0.000169091
0.000168971
0.000168862
0.00016876
0.000168669
0.000168592
0.000168532
0.000168488
0.000168461
0.000168452
0.000168464
0.000168502
0.000168578
0.000168717
0.000168967
0.000169397
0.000170052
0.00014567
0.000121346
0.000101446
8.49823e-05
7.1383e-05
6.01508e-05
5.0866e-05
4.31861e-05
3.68301e-05
3.15684e-05
2.72138e-05
2.36144e-05
2.06489e-05
1.82195e-05
1.62583e-05
1.47013e-05
1.36784e-05
1.32465e-05
1.09789e-05
2.07395e-06
2.40237e-07
5.73798e-08
0.00016907
0.000168948
0.000168841
0.000168745
0.000168656
0.000168576
0.000168509
0.000168457
0.000168421
0.000168402
0.0001684
0.000168419
0.000168464
0.000168547
0.000168695
0.00016896
0.000169409
0.000170089
0.000147207
0.000122793
0.000102784
8.62208e-05
7.2532e-05
6.12191e-05
5.18615e-05
4.41163e-05
3.77021e-05
3.23885e-05
2.79884e-05
2.43491e-05
2.13497e-05
1.88919e-05
1.69085e-05
1.5335e-05
1.43533e-05
1.39741e-05
1.06465e-05
1.90376e-06
2.24995e-07
5.7663e-08
0.000168912
0.000168804
0.000168711
0.000168628
0.000168552
0.000168483
0.000168425
0.000168382
0.000168354
0.000168342
0.000168348
0.000168374
0.000168426
0.000168517
0.000168675
0.000168955
0.000169427
0.000170132
0.000148791
0.000124293
0.000104175
8.75103e-05
7.37307e-05
6.23364e-05
5.2906e-05
4.5096e-05
3.86243e-05
3.326e-05
2.88155e-05
2.51385e-05
2.21075e-05
1.96241e-05
1.76202e-05
1.60389e-05
1.51066e-05
1.48154e-05
1.03091e-05
1.72705e-06
2.11677e-07
5.78943e-08
0.000168754
0.000168661
0.000168581
0.000168511
0.000168447
0.000168389
0.000168341
0.000168307
0.000168287
0.000168283
0.000168296
0.000168329
0.000168389
0.000168488
0.000168657
0.000168953
0.000169449
0.00017018
0.000150427
0.000125846
0.000105619
8.8851e-05
7.49794e-05
6.35036e-05
5.40008e-05
4.61266e-05
3.95984e-05
3.4185e-05
2.96985e-05
2.59865e-05
2.29277e-05
2.04219e-05
1.83999e-05
1.68214e-05
1.59455e-05
1.58334e-05
9.88911e-06
1.55013e-06
2.00188e-07
5.80517e-08
0.000168596
0.000168517
0.000168451
0.000168394
0.000168342
0.000168295
0.000168257
0.000168232
0.00016822
0.000168223
0.000168244
0.000168285
0.000168352
0.00016846
0.000168641
0.000168955
0.000169477
0.000170235
0.000152116
0.000127454
0.000107116
9.02429e-05
7.62786e-05
6.47209e-05
5.51462e-05
4.72092e-05
4.06263e-05
3.51665e-05
3.06414e-05
2.68981e-05
2.3815e-05
2.12909e-05
1.92553e-05
1.76903e-05
1.68821e-05
1.71498e-05
9.31198e-06
1.37936e-06
1.90072e-07
5.81057e-08
0.000168438
0.000168374
0.000168321
0.000168277
0.000168237
0.000168201
0.000168173
0.000168156
0.000168153
0.000168164
0.000168193
0.000168241
0.000168316
0.000168433
0.000168626
0.000168961
0.000169511
0.000170299
0.000153862
0.000129116
0.000108664
9.16844e-05
7.76273e-05
6.59884e-05
5.63432e-05
4.83456e-05
4.17111e-05
3.62078e-05
3.16472e-05
2.78766e-05
2.47741e-05
2.22369e-05
2.01949e-05
1.8655e-05
1.79427e-05
1.9008e-05
8.53311e-06
1.22003e-06
1.81253e-07
5.80277e-08
0.000168281
0.000168232
0.000168192
0.00016816
0.000168132
0.000168107
0.000168089
0.000168081
0.000168086
0.000168106
0.000168142
0.000168198
0.000168281
0.000168407
0.000168615
0.000168971
0.000169554
0.000170371
0.00015567
0.000130839
0.000110267
9.31794e-05
7.903e-05
6.73113e-05
5.75975e-05
4.95407e-05
4.28565e-05
3.73121e-05
3.27192e-05
2.89266e-05
2.58115e-05
2.3267e-05
2.12265e-05
1.9727e-05
1.91764e-05
2.20278e-05
7.56697e-06
1.07584e-06
1.73729e-07
5.77953e-08
0.000168125
0.00016809
0.000168064
0.000168045
0.000168028
0.000168013
0.000168005
0.000168007
0.00016802
0.000168048
0.000168092
0.000168155
0.000168247
0.000168384
0.000168607
0.000168988
0.000169605
0.000170453
0.000157511
0.00013259
0.0001119
9.47078e-05
8.04702e-05
6.86753e-05
5.88962e-05
5.07839e-05
4.40539e-05
3.84734e-05
3.38548e-05
3.0048e-05
2.69296e-05
2.43834e-05
2.2347e-05
2.09136e-05
2.06774e-05
2.61221e-05
6.49158e-06
9.4876e-07
1.67498e-07
5.73985e-08
0.000167971
0.00016795
0.000167937
0.00016793
0.000167924
0.00016792
0.000167922
0.000167933
0.000167955
0.00016799
0.000168042
0.000168114
0.000168215
0.000168363
0.000168603
0.000169011
0.000169666
0.000170545
0.000159524
0.000134486
0.000113649
9.63373e-05
8.20026e-05
7.01238e-05
6.02751e-05
5.21053e-05
4.53299e-05
3.97158e-05
3.50759e-05
3.12618e-05
2.81479e-05
2.56013e-05
2.35628e-05
2.22593e-05
2.26187e-05
2.48351e-05
5.40384e-06
8.39441e-07
1.62558e-07
5.68481e-08
0.000167818
0.000167811
0.000167812
0.000167816
0.000167821
0.000167828
0.00016784
0.000167859
0.00016789
0.000167934
0.000167994
0.000168074
0.000168184
0.000168344
0.000168603
0.000169042
0.00016974
0.000170647
0.000161749
0.000136547
0.000115532
9.80819e-05
8.36318e-05
7.16541e-05
6.1724e-05
5.3488e-05
4.66611e-05
4.101e-05
3.6349e-05
3.25305e-05
2.94244e-05
2.68732e-05
2.48264e-05
2.37678e-05
2.53479e-05
2.20955e-05
4.39215e-06
7.46724e-07
1.58848e-07
5.62071e-08
0.000178847
0.000176859
0.000175246
0.000173951
0.000172904
0.000172044
0.000171334
0.000178847
0.00017686
0.000175247
0.000173954
0.000172907
0.000172047
0.000171341
0.000178847
0.00017686
0.000175248
0.000173955
0.000172908
0.000172049
0.000171344
0.000178847
0.00017686
0.000175248
0.000173955
0.000172909
0.00017205
0.000171346
0.000178847
0.00017686
0.000175248
0.000173956
0.00017291
0.000172051
0.000171347
0.000178847
0.00017686
0.000175249
0.000173956
0.000172911
0.000172052
0.000171348
0.000178847
0.00017686
0.000175249
0.000173956
0.000172911
0.000172053
0.000171348
0.000178847
0.00017686
0.000175249
0.000173956
0.000172911
0.000172053
0.000171349
0.000178847
0.00017686
0.000175249
0.000173957
0.000172911
0.000172053
0.000171348
0.000178847
0.00017686
0.000175249
0.000173956
0.000172911
0.000172053
0.000171348
0.000178847
0.00017686
0.000175249
0.000173956
0.000172911
0.000172052
0.000171348
0.000178847
0.00017686
0.000175249
0.000173956
0.000172911
0.000172052
0.000171347
0.000178847
0.00017686
0.000175248
0.000173956
0.00017291
0.000172051
0.000171347
0.000178847
0.00017686
0.000175248
0.000173956
0.00017291
0.000172051
0.000171346
0.000178847
0.00017686
0.000175248
0.000173956
0.00017291
0.000172051
0.000171345
0.000178847
0.00017686
0.000175248
0.000173955
0.00017291
0.00017205
0.000171345
0.000178847
0.00017686
0.000175248
0.000173955
0.000172909
0.00017205
0.000171345
0.000178847
0.00017686
0.000175248
0.000173955
0.000172909
0.00017205
0.000171344
0.000178847
0.00017686
0.000175248
0.000173955
0.000172909
0.00017205
0.000171344
0.000178847
0.00017686
0.000175248
0.000173955
0.000172909
0.00017205
0.000171344
0.000178847
0.00017686
0.000175248
0.000173955
0.000172909
0.000172049
0.000171344
0.000178847
0.00017686
0.000175248
0.000173955
0.000172909
0.000172049
0.000171344
0.000178847
0.00017686
0.000175248
0.000173955
0.000172909
0.000172049
0.000171344
0.000178847
0.00017686
0.000175248
0.000173955
0.000172909
0.000172049
0.000171344
0.000178847
0.00017686
0.000175248
0.000173955
0.000172909
0.000172049
0.000171344
0.000178847
0.00017686
0.000175248
0.000173955
0.000172909
0.000172049
0.000171344
0.000178847
0.00017686
0.000175248
0.000173955
0.000172909
0.000172049
0.000171343
0.000178847
0.00017686
0.000175248
0.000173955
0.000172909
0.000172049
0.000171343
0.000178847
0.00017686
0.000175248
0.000173955
0.000172909
0.000172049
0.000171343
0.000178847
0.00017686
0.000175248
0.000173955
0.000172909
0.000172049
0.000171343
0.000178847
0.00017686
0.000175248
0.000173955
0.000172909
0.000172049
0.000171343
0.000178847
0.00017686
0.000175248
0.000173955
0.000172909
0.000172049
0.000171343
0.000178847
0.00017686
0.000175248
0.000173955
0.000172909
0.000172049
0.000171343
0.000178847
0.00017686
0.000175248
0.000173955
0.000172909
0.000172049
0.000171343
0.000178847
0.00017686
0.000175248
0.000173955
0.000172909
0.000172049
0.000171343
0.000178847
0.00017686
0.000175248
0.000173955
0.000172909
0.000172049
0.000171343
0.000178847
0.00017686
0.000175248
0.000173955
0.000172909
0.000172049
0.000171343
0.000178847
0.00017686
0.000175248
0.000173955
0.000172909
0.000172049
0.000171343
0.000178847
0.00017686
0.000175248
0.000173955
0.000172909
0.000172049
0.000171343
0.000178847
0.00017686
0.000175248
0.000173955
0.000172909
0.000172049
0.000171343
0.000170929
0.000170784
0.000170636
0.000170485
0.000170329
0.00017017
0.000170008
0.000169844
0.000169678
0.00016951
0.000169341
0.000169171
0.000169002
0.000168832
0.000168663
0.000168495
0.000168327
0.000168161
0.000167997
0.000167835
0.00017093
0.000170779
0.000170626
0.00017047
0.000170311
0.000170149
0.000169986
0.000169821
0.000169654
0.000169487
0.000169318
0.00016915
0.000168981
0.000168813
0.000168645
0.000168478
0.000168312
0.000168147
0.000167984
0.000167823
0.000170933
0.000170781
0.000170628
0.000170472
0.000170313
0.000170152
0.000169989
0.000169824
0.000169657
0.00016949
0.000169321
0.000169153
0.000168984
0.000168815
0.000168647
0.00016848
0.000168313
0.000168148
0.000167984
0.000167822
0.000170935
0.000170783
0.000170629
0.000170473
0.000170314
0.000170153
0.000169989
0.000169824
0.000169658
0.00016949
0.000169322
0.000169153
0.000168984
0.000168815
0.000168647
0.000168479
0.000168313
0.000168147
0.000167984
0.000167822
0.000170936
0.000170784
0.00017063
0.000170474
0.000170315
0.000170153
0.00016999
0.000169824
0.000169658
0.00016949
0.000169322
0.000169153
0.000168984
0.000168815
0.000168647
0.000168479
0.000168312
0.000168147
0.000167983
0.000167821
0.000170937
0.000170784
0.000170631
0.000170474
0.000170315
0.000170153
0.00016999
0.000169824
0.000169658
0.00016949
0.000169321
0.000169152
0.000168983
0.000168814
0.000168646
0.000168478
0.000168311
0.000168146
0.000167982
0.00016782
0.000170937
0.000170785
0.000170631
0.000170474
0.000170315
0.000170153
0.000169989
0.000169824
0.000169657
0.000169489
0.00016932
0.000169151
0.000168982
0.000168813
0.000168645
0.000168477
0.00016831
0.000168144
0.00016798
0.000167818
0.000170937
0.000170784
0.00017063
0.000170473
0.000170314
0.000170152
0.000169988
0.000169823
0.000169656
0.000169488
0.000169319
0.00016915
0.000168981
0.000168812
0.000168643
0.000168476
0.000168309
0.000168143
0.000167979
0.000167817
0.000170937
0.000170784
0.00017063
0.000170473
0.000170313
0.000170151
0.000169987
0.000169822
0.000169655
0.000169487
0.000169318
0.000169149
0.00016898
0.00016881
0.000168642
0.000168474
0.000168307
0.000168141
0.000167977
0.000167815
0.000170936
0.000170783
0.000170629
0.000170472
0.000170312
0.00017015
0.000169986
0.00016982
0.000169653
0.000169485
0.000169316
0.000169147
0.000168978
0.000168809
0.00016864
0.000168472
0.000168305
0.000168139
0.000167975
0.000167813
0.000170936
0.000170782
0.000170628
0.00017047
0.000170311
0.000170148
0.000169984
0.000169819
0.000169651
0.000169483
0.000169314
0.000169145
0.000168976
0.000168807
0.000168638
0.00016847
0.000168303
0.000168138
0.000167973
0.000167811
0.000170935
0.000170781
0.000170627
0.000170469
0.000170309
0.000170147
0.000169983
0.000169817
0.00016965
0.000169481
0.000169313
0.000169143
0.000168974
0.000168805
0.000168636
0.000168468
0.000168302
0.000168136
0.000167971
0.000167809
0.000170934
0.00017078
0.000170625
0.000170468
0.000170308
0.000170145
0.000169981
0.000169815
0.000169648
0.00016948
0.000169311
0.000169142
0.000168972
0.000168803
0.000168635
0.000168467
0.0001683
0.000168134
0.00016797
0.000167808
0.000170934
0.000170779
0.000170624
0.000170466
0.000170306
0.000170144
0.000169979
0.000169813
0.000169646
0.000169478
0.000169309
0.00016914
0.00016897
0.000168801
0.000168633
0.000168465
0.000168298
0.000168133
0.000167968
0.000167806
0.000170933
0.000170778
0.000170623
0.000170465
0.000170305
0.000170142
0.000169977
0.000169811
0.000169644
0.000169476
0.000169307
0.000169138
0.000168969
0.0001688
0.000168631
0.000168463
0.000168297
0.000168131
0.000167967
0.000167805
0.000170932
0.000170778
0.000170622
0.000170464
0.000170303
0.00017014
0.000169976
0.00016981
0.000169642
0.000169474
0.000169305
0.000169136
0.000168967
0.000168798
0.00016863
0.000168462
0.000168295
0.00016813
0.000167966
0.000167804
0.000170932
0.000170777
0.000170621
0.000170462
0.000170301
0.000170139
0.000169974
0.000169808
0.00016964
0.000169472
0.000169303
0.000169134
0.000168965
0.000168796
0.000168628
0.000168461
0.000168294
0.000168129
0.000167965
0.000167803
0.000170931
0.000170776
0.000170619
0.000170461
0.0001703
0.000170137
0.000169972
0.000169806
0.000169639
0.00016947
0.000169302
0.000169133
0.000168964
0.000168795
0.000168627
0.000168459
0.000168293
0.000168128
0.000167964
0.000167802
0.000170931
0.000170775
0.000170618
0.000170459
0.000170298
0.000170135
0.00016997
0.000169804
0.000169637
0.000169468
0.0001693
0.000169131
0.000168962
0.000168793
0.000168625
0.000168458
0.000168292
0.000168127
0.000167963
0.000167801
0.00017093
0.000170774
0.000170617
0.000170458
0.000170297
0.000170133
0.000169968
0.000169802
0.000169635
0.000169466
0.000169298
0.000169129
0.00016896
0.000168792
0.000168624
0.000168457
0.000168291
0.000168126
0.000167962
0.000167801
0.00017093
0.000170773
0.000170616
0.000170456
0.000170295
0.000170131
0.000169966
0.0001698
0.000169632
0.000169464
0.000169296
0.000169127
0.000168958
0.00016879
0.000168622
0.000168455
0.000168289
0.000168125
0.000167961
0.0001678
0.00017093
0.000170772
0.000170615
0.000170455
0.000170293
0.000170129
0.000169964
0.000169798
0.00016963
0.000169462
0.000169294
0.000169125
0.000168957
0.000168788
0.000168621
0.000168454
0.000168288
0.000168124
0.000167961
0.0001678
0.000170929
0.000170771
0.000170613
0.000170453
0.000170291
0.000170127
0.000169962
0.000169795
0.000169628