/*--------------------------------*- C++ -*----------------------------------*\
  =========                 |
  \\      /  F ield         | OpenFOAM: The Open Source CFD Toolbox
   \\    /   O peration     | Website:  https://openfoam.org
    \\  /    A nd           | Version:  13
     \\/     M anipulation  |
\*---------------------------------------------------------------------------*/
FoamFile
{
    format      ascii;
    class       volScalarField;
    location    "286";
    object      omega;
}
// * * * * * * * * * * * * * * * * * * * * * * * * * * * * * * * * * * * * * //

dimensions      [0 0 -1 0 0 0 0];

internalField   nonuniform List<scalar> 
26820
(
1857.58
1679.07
1545.43
1443.61
1364.28
1301.21
1250.17
1857.43
1678.68
1544.91
1443
1363.61
1300.51
1249.42
1857.12
1677.92
1543.86
1441.78
1362.27
1299.11
1247.93
1856.65
1676.78
1542.3
1439.95
1360.28
1297.02
1245.7
1856.04
1675.26
1540.22
1437.53
1357.63
1294.25
1242.74
1855.27
1673.36
1537.63
1434.52
1354.34
1290.81
1239.08
1854.36
1671.11
1534.55
1430.93
1350.42
1286.72
1234.72
1853.29
1668.49
1530.98
1426.78
1345.9
1282
1229.69
1852.09
1665.53
1526.94
1422.08
1340.78
1276.66
1224.01
1850.74
1662.22
1522.44
1416.86
1335.1
1270.73
1217.71
1849.25
1658.58
1517.49
1411.13
1328.87
1264.23
1210.82
1847.63
1654.61
1512.12
1404.91
1322.11
1257.2
1203.37
1845.88
1650.34
1506.34
1398.22
1314.87
1249.66
1195.39
1844
1645.77
1500.16
1391.09
1307.15
1241.64
1186.92
1842
1640.91
1493.61
1383.55
1299
1233.18
1177.99
1839.89
1635.78
1486.71
1375.61
1290.44
1224.29
1168.63
1837.66
1630.39
1479.47
1367.31
1281.49
1215.02
1158.89
1835.32
1624.75
1471.92
1358.66
1272.19
1205.39
1148.78
1832.88
1618.86
1464.05
1349.66
1262.55
1195.39
1138.36
1830.34
1612.74
1455.89
1340.34
1252.6
1184.95
1127.93
1206.31
1166.82
1133.13
1104.18
1079.15
1057.4
1038.42
1021.81
1007.25
994.478
983.313
973.613
965.295
958.322
952.691
948.419
945.568
944.306
944.955
948.019
954.24
964.698
980.944
1005.19
1040.6
1091.7
1165.02
1269.97
1420.25
1635.97
1946.91
2398.02
3058.31
4037.62
5517.56
7815.39
12105.7
42378.7
318494
2.69204e+06
1205.64
1166.25
1132.63
1103.75
1078.78
1057.08
1038.14
1021.56
1007.03
994.284
983.139
973.458
965.156
958.195
952.574
948.309
945.464
944.203
944.847
947.899
954.1
964.527
980.726
1004.9
1040.21
1091.17
1164.27
1268.91
1418.75
1633.8
1943.78
2393.44
3051.59
4027.71
5503.19
7795.37
12083
42436.8
319565
2.69204e+06
1204.3
1165.09
1131.64
1102.89
1078.04
1056.43
1037.58
1021.07
1006.59
993.896
982.796
973.153
964.884
957.952
952.356
948.113
945.286
944.041
944.696
947.757
953.961
964.387
980.577
1004.73
1040
1090.9
1163.91
1268.39
1417.97
1632.61
1941.93
2390.55
3047.04
4020.54
5492.19
7779.73
12072.4
42518.1
320077
2.69204e+06
1202.3
1163.36
1130.15
1101.61
1076.93
1055.46
1036.73
1020.32
1005.94
993.318
982.283
972.698
964.481
957.595
952.04
947.833
945.039
943.824
944.508
947.597
953.829
964.284
980.503
1004.69
1040
1090.93
1163.96
1268.47
1418.04
1632.62
1941.79
2390.06
3045.88
4018.23
5488.07
7773.57
12082.9
42683.7
320609
2.69204e+06
1199.64
1161.06
1128.18
1099.91
1075.45
1054.18
1035.6
1019.34
1005.06
992.548
981.602
972.094
963.945
957.12
951.62
947.463
944.713
943.539
944.263
947.389
953.659
964.153
980.415
1004.65
1040.01
1090.99
1164.09
1268.67
1418.31
1632.96
1942.15
2390.38
3046.03
4018.05
5487.36
7772.47
12111
42965.6
321447
2.69204e+06
1196.35
1158.21
1125.72
1097.79
1073.61
1052.58
1034.2
1018.1
1003.98
991.589
980.753
971.341
963.277
956.528
951.097
947.002
944.309
943.187
943.959
947.132
953.45
963.993
980.308
1004.6
1040.02
1091.09
1164.28
1268.96
1418.73
1633.52
1942.88
2391.31
3047.18
4019.54
5489.43
7775.66
12156.9
43378.5
322673
2.69204e+06
1192.43
1154.82
1122.8
1095.27
1071.43
1050.67
1032.53
1016.64
1002.68
990.445
979.739
970.442
962.479
955.822
950.472
946.452
943.827
942.769
943.601
946.832
953.209
963.813
980.195
1004.56
1040.07
1091.24
1164.56
1269.4
1419.36
1634.41
1944.1
2393
3049.52
4022.93
5494.55
7783.66
12222
43928.7
324303
2.69204e+06
1187.91
1150.9
1119.42
1092.35
1068.89
1048.46
1030.6
1014.93
1001.18
989.117
978.562
969.399
961.554
955.002
949.748
945.815
943.271
942.286
943.189
946.49
952.938
963.616
980.08
1004.54
1040.16
1091.46
1164.95
1269.99
1420.23
1635.65
1945.85
2395.48
3053.09
4028.24
5502.75
7796.68
12307.8
44619.2
326330
2.69204e+06
1182.81
1146.47
1115.6
1089.05
1066.02
1045.96
1028.4
1013
999.48
987.61
977.227
968.214
960.503
954.071
948.926
945.093
942.64
941.741
942.726
946.107
952.637
963.403
979.963
1004.54
1040.29
1091.75
1165.44
1270.75
1421.34
1637.23
1948.11
2398.73
3057.85
4035.42
5513.91
7814.7
12415.6
45452.4
328741
2.69204e+06
1177.14
1141.55
1111.36
1085.37
1062.83
1043.17
1025.96
1010.85
997.579
985.928
975.736
966.891
959.329
953.032
948.008
944.286
941.936
941.134
942.211
945.684
952.308
963.175
979.847
1004.55
1040.46
1092.11
1166.04
1271.67
1422.68
1639.17
1950.89
2402.76
3063.79
4044.43
5527.95
7837.77
12546.9
46431.4
331523
2.69204e+06
1170.93
1136.15
1106.7
1081.34
1059.32
1040.1
1023.27
1008.48
995.487
984.075
974.093
965.433
958.036
951.886
946.997
943.398
941.162
940.466
941.647
945.223
951.953
962.934
979.734
1004.58
1040.67
1092.55
1166.76
1272.76
1424.28
1641.47
1954.2
2407.58
3070.91
4055.27
5544.88
7866.1
12704.1
47561.4
334667
2.69204e+06
1164.22
1130.31
1101.64
1076.96
1055.5
1036.77
1020.34
1005.9
993.208
982.057
972.302
963.843
956.626
950.637
945.895
942.431
940.319
939.741
941.035
944.725
951.573
962.682
979.625
1004.64
1040.93
1093.06
1167.6
1274.04
1426.14
1644.15
1958.06
2413.2
3079.24
4067.97
5564.75
7900
12889.1
48843.3
338177
2.69204e+06
1157.02
1124.04
1096.22
1072.25
1051.4
1033.18
1017.18
1003.12
990.749
979.878
970.369
962.127
955.102
949.288
944.704
941.386
939.41
938.96
940.377
944.192
951.171
962.421
979.525
1004.73
1041.25
1093.67
1168.58
1275.5
1428.28
1647.22
1962.49
2419.66
3088.83
4082.58
5587.65
7939.68
13099.5
50253.8
342102
2.69204e+06
1149.38
1117.38
1090.44
1067.22
1047.02
1029.34
1013.81
1000.15
988.117
977.545
968.298
960.287
953.469
947.842
943.429
940.267
938.437
938.125
939.677
943.628
950.748
962.155
979.436
1004.85
1041.63
1094.37
1169.7
1277.17
1430.71
1650.72
1967.53
2427.01
3099.73
4099.17
5613.7
7985.49
13338.4
51807.9
346443
2.69204e+06
1141.31
1110.33
1084.32
1061.91
1042.38
1025.27
1010.23
996.984
985.319
975.063
966.094
958.329
951.731
946.302
942.071
939.077
937.403
937.239
938.936
943.033
950.309
961.886
979.362
1005.01
1042.07
1095.17
1170.97
1279.07
1433.46
1654.67
1973.23
2435.31
3112.03
4117.87
5643.06
8038.01
13610.8
53525.5
351199
2.69204e+06
1132.86
1102.94
1077.89
1056.31
1037.49
1020.98
1006.45
993.645
982.362
972.439
963.763
956.257
949.892
944.673
940.635
937.819
936.311
936.305
938.157
942.412
949.855
961.617
979.308
1005.21
1042.58
1096.09
1172.4
1281.2
1436.55
1659.11
1979.62
2444.62
3125.83
4138.8
5675.94
8098.12
13922.4
55426.6
356371
2.69204e+06
1124.05
1095.22
1071.18
1050.46
1032.36
1016.48
1002.48
990.138
979.254
969.68
961.31
954.077
947.955
942.959
939.123
936.496
935.164
935.327
937.343
941.768
949.391
961.354
979.278
1005.46
1043.18
1097.12
1174.02
1283.59
1440.01
1664.07
1986.77
2455.02
3141.26
4162.16
5712.6
8166.94
14279.9
57532.4
361968
2.69204e+06
1114.91
1087.21
1064.2
1044.36
1027.02
1011.78
998.339
986.472
976.002
966.791
958.741
951.793
945.927
941.163
937.541
935.111
933.966
934.306
936.498
941.103
948.92
961.101
979.278
1005.77
1043.87
1098.3
1175.84
1286.27
1443.87
1669.62
1994.74
2466.62
3158.44
4188.18
5753.41
8245.88
14691.5
59865.8
368003
2.69204e+06
1105.43
1078.91
1056.98
1038.05
1021.48
1006.9
994.031
982.657
972.617
963.782
956.064
949.411
943.811
939.29
935.891
933.67
932.72
933.247
935.625
940.422
948.447
960.862
979.313
1006.14
1044.66
1099.62
1177.87
1289.26
1448.17
1675.78
2003.62
2479.53
3177.56
4217.11
5798.81
8336.72
15166.4
62452.2
374496
2.69204e+06
1096.11
1070.36
1049.44
1031.5
1015.76
1001.86
989.569
978.703
969.104
960.658
953.283
946.936
941.613
937.344
934.179
932.174
931.43
932.154
934.728
939.729
947.976
960.643
979.392
1006.58
1045.56
1101.11
1180.14
1292.59
1452.96
1682.64
2013.48
2493.88
3198.8
4249.26
5849.33
8441.67
15715.9
65320.2
381469
2.69204e+06
1084.55
1062.56
1042.14
1024.81
1009.84
996.651
984.967
974.62
965.474
957.427
950.406
944.375
939.338
935.331
932.407
930.629
930.099
931.03
933.81
939.028
947.512
960.449
979.52
1007.1
1046.58
1102.79
1182.68
1296.29
1458.29
1690.26
2024.44
2509.81
3222.4
4284.98
5905.63
8563.52
16353.1
68503
388965
2.69204e+06
1073.09
1054.03
1034.85
1018.1
1003.79
991.293
980.231
970.417
961.736
954.097
947.439
941.734
936.991
933.254
930.582
929.039
928.732
929.88
932.877
938.324
947.06
960.288
979.707
1007.72
1047.74
1104.66
1185.5
1300.41
1464.2
1698.72
2036.6
2527.51
3248.61
4324.68
5968.52
8705.79
17094.1
72031.4
396895
2.69204e+06
1062.03
1044.86
1027.33
1011.36
997.646
985.805
975.369
966.104
957.898
950.676
944.389
939.018
934.578
931.12
928.707
927.408
927.333
928.707
931.932
937.621
946.627
960.167
979.961
1008.44
1049.06
1106.77
1188.65
1304.98
1470.75
1708.1
2050.11
2547.16
3277.73
4368.85
6038.98
8872.94
17958
75966.4
406462
2.69204e+06
1051.26
1035.37
1019.49
1004.53
991.451
980.219
970.396
961.689
953.968
947.172
941.264
936.233
932.104
928.933
926.788
925.741
925.908
927.517
930.98
936.926
946.218
960.093
980.293
1009.28
1050.56
1109.12
1192.15
1310.06
1478.03
1718.52
2065.1
2569
3310.11
4418.02
6118.23
9070.61
18967.2
80377.8
418937
2.69204e+06
1040.67
1025.76
1011.38
997.566
985.203
974.561
965.33
957.181
949.955
943.592
938.069
933.386
929.575
926.698
924.829
924.042
924.459
926.313
930.027
936.244
945.841
960.075
980.714
1010.25
1052.24
1111.75
1196.05
1315.7
1486.11
1730.08
2081.75
2593.27
3346.14
4472.84
6207.8
9306.14
20158.9
85581.1
433656
2.69204e+06
1030.15
1016.13
1003.06
990.45
978.889
968.848
960.188
952.592
945.866
939.944
934.813
930.484
926.997
924.421
922.835
922.317
922.994
925.102
929.078
935.581
945.503
960.122
981.236
1011.38
1054.14
1114.68
1200.38
1321.96
1495.08
1742.92
2100.26
2620.29
3386.27
4534.06
6309.63
9588.35
21541.6
90126
451452
2.69204e+06
1019.66
1006.54
994.611
983.189
972.501
963.088
954.989
947.934
941.71
936.235
931.502
927.532
924.376
922.108
920.812
920.571
921.516
923.888
928.139
934.945
945.212
960.246
981.872
1012.67
1056.29
1117.96
1205.21
1328.92
1505.04
1757.2
2120.86
2650.38
3431.05
4602.6
6426.25
9929.07
23155
93400.1
472085
2.69204e+06
1009.17
996.98
986.102
975.81
966.036
957.284
949.743
943.222
937.498
932.474
928.143
924.538
921.717
919.764
918.766
918.81
920.031
922.677
927.216
934.342
944.979
960.457
982.639
1014.15
1058.7
1121.63
1210.58
1336.66
1516.11
1773.07
2143.8
2683.95
3481.09
4679.54
6560.88
10338.7
24648.5
96052.5
494549
2.69204e+06
998.701
987.469
977.57
968.347
959.498
951.44
944.463
938.466
933.238
928.667
924.743
921.507
919.027
917.395
916.702
917.038
918.545
921.475
926.315
933.781
944.812
960.769
983.552
1015.84
1061.42
1125.72
1216.56
1345.26
1528.44
1790.76
2169.39
2721.46
3537.11
4766.22
6717.42
10800
25792.6
98761.8
517904
2.69204e+06
988.245
978.005
969.048
960.831
952.901
945.558
939.154
933.677
928.941
924.823
921.309
918.446
916.312
915.006
914.625
915.262
917.064
920.291
925.445
933.269
944.723
961.196
984.632
1017.76
1064.47
1130.3
1223.22
1354.84
1542.16
1810.48
2197.96
2763.44
3599.98
4864.38
6898.39
11218.2
26599.7
102019
541390
2.69204e+06
977.825
968.591
960.554
953.291
946.261
939.646
933.824
928.865
924.616
920.951
917.849
915.362
913.579
912.605
912.542
913.488
915.595
919.129
924.614
932.817
944.722
961.753
985.9
1019.96
1067.91
1135.41
1230.65
1365.51
1557.46
1832.5
2229.94
2810.52
3670.75
4975.42
7085.38
11580.5
27106.9
106178
564382
2.69204e+06
967.459
959.235
952.105
945.752
939.595
933.711
928.481
924.039
920.273
917.057
914.368
912.262
910.833
910.197
910.46
911.721
914.142
917.998
923.83
932.435
944.825
962.459
987.381
1022.46
1071.77
1141.13
1238.95
1377.43
1574.55
1857.12
2265.78
2863.47
3750.25
5097.39
7279.8
11857.8
27403.7
111499
586327
2.69204e+06
957.166
949.946
943.713
938.235
932.921
927.764
923.13
919.206
915.919
913.151
910.875
909.151
908.081
907.789
908.383
909.97
912.715
916.906
923.103
932.135
945.045
963.334
989.101
1025.3
1076.11
1147.53
1248.21
1390.74
1593.66
1884.74
2306.06
2922.79
3839.29
5232.73
7478.76
12013.7
27642.2
118143
606710
2.69204e+06
946.963
940.734
935.389
930.756
926.256
921.816
917.78
914.373
911.562
909.24
907.377
906.037
905.33
905.386
906.321
908.24
911.319
915.86
922.444
931.929
945.401
964.4
991.092
1028.52
1080.99
1154.71
1258.58
1405.64
1615.1
1915.67
2351.18
2989.52
3939.71
5384.41
7670.71
12017.2
28037.4
126167
625025
2.69204e+06
936.867
931.611
927.144
923.33
919.615
915.878
912.437
909.549
907.212
905.331
903.881
902.927
902.586
902.997
904.278
906.539
909.964
914.871
921.864
931.834
945.91
965.684
993.39
1032.17
1086.49
1162.75
1270.2
1422.32
1639.08
1950.38
2401.94
3064.9
4054.02
5554.54
7832.56
11861.4
28856.1
135513
640759
2.69204e+06
926.893
922.588
918.988
915.971
913.013
909.961
907.112
904.74
902.874
901.433
900.395
899.827
899.857
900.628
902.263
904.875
908.657
913.948
921.374
931.864
946.596
967.216
996.037
1036.32
1092.69
1171.78
1283.21
1441.01
1666.01
1989.46
2459.26
3150.54
4185.6
5741.55
7930.54
11584.6
30398.5
145995
653396
2.69204e+06
917.055
913.679
910.93
908.689
906.462
904.076
901.811
899.954
898.557
897.553
896.924
896.745
897.148
898.286
900.284
903.256
907.408
913.102
920.99
932.039
947.483
969.029
999.076
1041.01
1099.66
1181.91
1297.82
1462.02
1696.34
2033.58
2524.2
3248.7
4338.44
5936.21
7927.44
11293.5
32966.5
157298
662425
2.69204e+06
907.365
904.896
902.981
901.497
899.974
898.235
896.544
895.199
894.267
893.697
893.477
893.687
894.469
895.98
898.348
901.691
906.228
912.347
920.727
932.378
948.597
971.159
1002.56
1046.34
1107.52
1193.33
1314.26
1485.7
1730.6
2083.53
2598.16
3362.7
4515.49
6118.2
7799.96
11182.1
36825.1
168978
667388
2.69204e+06
897.825
896.245
895.147
894.399
893.557
892.444
891.318
890.479
890.012
889.873
890.06
890.662
891.826
893.717
896.465
900.191
905.128
911.695
920.603
932.906
949.973
973.655
1006.56
1052.39
1116.42
1206.21
1332.83
1512.49
1769.42
2140.26
2683.08
3497.05
4715.96
6255.07
7545.48
11477.8
42215
180459
667915
2.69204e+06
888.481
887.769
887.461
887.425
887.236
886.726
886.15
885.812
885.802
886.09
886.682
887.675
889.225
891.501
894.637
898.754
904.106
911.147
920.616
933.622
951.614
976.524
1011.09
1059.2
1126.4
1220.68
1353.72
1542.71
1813.34
2204.81
2781.96
3656.64
4928.96
6304.03
7223.38
12517.9
49322
191236
664022
2.69206e+06
1827.99
1609.13
1451.72
1335.89
1248.12
1179.87
1125.79
1827.98
1609.13
1451.74
1335.91
1248.18
1179.85
1126.05
1827.99
1609.15
1451.78
1335.99
1248.29
1180.01
1126.25
1827.99
1609.16
1451.81
1336.04
1248.37
1180.1
1126.37
1827.99
1609.17
1451.83
1336.08
1248.43
1180.18
1126.47
1827.99
1609.17
1451.85
1336.11
1248.47
1180.24
1126.54
1827.99
1609.18
1451.87
1336.13
1248.5
1180.28
1126.59
1827.99
1609.18
1451.87
1336.15
1248.52
1180.3
1126.61
1827.99
1609.18
1451.88
1336.15
1248.53
1180.3
1126.61
1827.99
1609.18
1451.87
1336.15
1248.52
1180.29
1126.59
1827.99
1609.18
1451.87
1336.14
1248.5
1180.27
1126.56
1827.99
1609.18
1451.86
1336.12
1248.48
1180.24
1126.53
1827.99
1609.17
1451.86
1336.11
1248.46
1180.21
1126.49
1827.99
1609.17
1451.85
1336.1
1248.44
1180.19
1126.45
1827.99
1609.17
1451.84
1336.08
1248.42
1180.16
1126.42
1827.99
1609.17
1451.83
1336.07
1248.41
1180.14
1126.39
1827.99
1609.16
1451.83
1336.06
1248.39
1180.12
1126.37
1827.99
1609.16
1451.83
1336.06
1248.38
1180.1
1126.35
1827.99
1609.16
1451.82
1336.05
1248.37
1180.09
1126.33
1827.99
1609.16
1451.82
1336.05
1248.37
1180.08
1126.32
1827.99
1609.16
1451.82
1336.04
1248.36
1180.08
1126.31
1827.99
1609.16
1451.82
1336.04
1248.36
1180.07
1126.3
1827.99
1609.16
1451.82
1336.04
1248.35
1180.07
1126.3
1827.99
1609.16
1451.81
1336.04
1248.35
1180.07
1126.29
1827.99
1609.16
1451.81
1336.04
1248.35
1180.06
1126.29
1827.99
1609.16
1451.81
1336.04
1248.35
1180.06
1126.28
1827.99
1609.16
1451.81
1336.03
1248.35
1180.06
1126.28
1827.99
1609.16
1451.81
1336.03
1248.35
1180.06
1126.28
1827.99
1609.16
1451.81
1336.03
1248.35
1180.06
1126.28
1827.99
1609.16
1451.81
1336.03
1248.35
1180.06
1126.27
1827.99
1609.16
1451.81
1336.03
1248.35
1180.06
1126.27
1827.99
1609.16
1451.81
1336.03
1248.35
1180.06
1126.27
1827.99
1609.16
1451.81
1336.03
1248.35
1180.06
1126.27
1827.99
1609.16
1451.81
1336.03
1248.35
1180.06
1126.27
1827.99
1609.16
1451.81
1336.03
1248.34
1180.06
1126.26
1827.99
1609.16
1451.81
1336.03
1248.34
1180.06
1126.26
1827.99
1609.16
1451.81
1336.03
1248.34
1180.06
1126.26
1827.99
1609.16
1451.81
1336.03
1248.34
1180.06
1126.25
1827.99
1609.16
1451.81
1336.03
1248.34
1180.06
1126.25
1827.99
1609.16
1451.81
1336.03
1248.34
1180.06
1126.25
1096.45
1085.91
1075.28
1064.44
1053.42
1042.25
1030.98
1019.64
1008.29
996.948
985.655
974.437
963.319
952.325
941.473
930.781
920.267
909.945
899.821
889.952
1096.18
1085.19
1074.12
1062.93
1051.66
1040.33
1028.97
1017.6
1006.27
994.979
983.762
972.635
961.617
950.724
939.974
929.379
918.952
908.708
898.65
888.828
1096.39
1085.41
1074.36
1063.22
1051.99
1040.7
1029.37
1018.03
1006.71
995.431
984.216
973.085
962.058
951.153
940.386
929.774
919.329
909.066
898.988
889.147
1096.51
1085.52
1074.46
1063.3
1052.06
1040.75
1029.41
1018.06
1006.73
995.44
984.216
973.078
962.045
951.134
940.364
929.748
919.3
909.035
898.954
889.111
1096.61
1085.6
1074.54
1063.37
1052.12
1040.8
1029.45
1018.1
1006.76
995.47
984.242
973.1
962.064
951.15
940.377
929.758
919.307
909.037
898.953
889.106
1096.67
1085.66
1074.58
1063.4
1052.14
1040.82
1029.46
1018.1
1006.76
995.465
984.233
973.087
962.047
951.131
940.354
929.732
919.279
909.007
898.92
889.07
1096.71
1085.68
1074.59
1063.41
1052.14
1040.81
1029.44
1018.08
1006.73
995.431
984.196
973.047
962.005
951.086
940.307
929.683
919.227
908.954
898.865
889.012
1096.72
1085.68
1074.58
1063.38
1052.1
1040.77
1029.4
1018.03
1006.68
995.373
984.135
972.984
961.939
951.019
940.239
929.614
919.157
908.883
898.792
888.939
1096.71
1085.65
1074.54
1063.34
1052.05
1040.7
1029.33
1017.96
1006.6
995.294
984.054
972.901
961.856
950.935
940.154
929.529
919.072
908.797
898.706
888.852
1096.68
1085.61
1074.49
1063.27
1051.97
1040.62
1029.25
1017.87
1006.51
995.2
983.958
972.805
961.759
950.839
940.058
929.434
918.977
908.703
898.612
888.758
1096.64
1085.56
1074.42
1063.19
1051.89
1040.53
1029.15
1017.76
1006.41
995.094
983.852
972.699
961.654
950.734
939.955
929.332
918.877
908.604
898.515
888.662
1096.6
1085.49
1074.34
1063.11
1051.79
1040.43
1029.04
1017.66
1006.29
994.982
983.74
972.588
961.544
950.626
939.85
929.229
918.776
908.506
898.419
888.568
1096.55
1085.43
1074.26
1063.02
1051.69
1040.32
1028.93
1017.54
1006.18
994.866
983.625
972.474
961.433
950.518
939.744
929.127
918.678
908.41
898.327
888.479
1096.5
1085.36
1074.18
1062.92
1051.59
1040.22
1028.82
1017.43
1006.06
994.749
983.509
972.361
961.322
950.411
939.641
929.028
918.584
908.321
898.242
888.399
1096.45
1085.29
1074.1
1062.83
1051.49
1040.1
1028.7
1017.31
1005.94
994.631
983.393
972.247
961.213
950.306
939.542
928.934
918.495
908.238
898.165
888.327
1096.41
1085.23
1074.02
1062.73
1051.38
1039.99
1028.59
1017.19
1005.82
994.512
983.277
972.135
961.106
950.205
939.447
928.846
918.413
908.163
898.097
888.264
1096.37
1085.17
1073.94
1062.64
1051.28
1039.88
1028.47
1017.07
1005.7
994.392
983.16
972.024
961
950.105
939.354
928.761
918.337
908.094
898.036
888.211
1096.34
1085.11
1073.86
1062.54
1051.17
1039.76
1028.34
1016.94
1005.58
994.27
983.042
971.911
960.894
950.007
939.265
928.68
918.265
908.032
897.982
888.167
1096.3
1085.05
1073.78
1062.44
1051.06
1039.64
1028.22
1016.81
1005.45
994.143
982.92
971.795
960.786
949.908
939.175
928.601
918.196
907.974
897.935
888.129
1096.27
1084.99
1073.69
1062.34
1050.94
1039.51
1028.08
1016.68
1005.31
994.011
982.793
971.676
960.675
949.807
939.085
928.522
918.13
907.919
897.892
888.098
1096.25
1084.93
1073.6
1062.23
1050.81
1039.38
1027.94
1016.53
1005.17
993.87
982.658
971.549
960.559
949.702
938.993
928.443
918.064
907.867
897.853
888.072
1096.22
1084.86
1073.51
1062.11
1050.68
1039.23
1027.79
1016.37
1005.01
993.72
982.515
971.415
960.436
949.592
938.896
928.361
917.996
907.815
897.816
888.05
1096.19
1084.79
1073.41
1061.99
1050.53
1039.07
1027.62
1016.21
1004.84
993.556
982.36
971.27
960.304
949.474
938.793
928.274
917.927
907.762
897.78
888.03
1096.16
1084.72
1073.3
1061.85
1050.37
1038.9
1027.44
1016.02
1004.66
993.379
982.191
971.113
960.161
949.346
938.683
928.182
917.853
907.707
897.744
888.013
1096.13
1084.64
1073.18
1061.7
1050.2
1038.71
1027.24
1015.82
1004.46
993.185
982.007
970.942
960.005
949.208
938.564
928.083
917.775
907.65
897.708
887.996
1096.1
1084.55
1073.05
1061.53
1050.01
1038.5
1027.02
1015.6
1004.24
992.973
981.805
970.755
959.835
949.057
938.434
927.975
917.69
907.588
897.669
887.98
1096.07
1084.46
1072.9
1061.35
1049.8
1038.27
1026.78
1015.35
1004
992.739
981.583
970.549
959.648
948.892
938.292
927.858
917.598
907.522
897.628
887.964
1096.03
1084.35
1072.74
1061.15
1049.57
1038.02
1026.52
1015.09
1003.73
992.481
981.339
970.322
959.442
948.71
938.136
927.729
917.497
907.449
897.584
887.948
1095.99
1084.24
1072.57
1060.93
1049.31
1037.74
1026.23
1014.79
1003.44
992.197
981.07
970.072
959.216
948.51
937.964
927.587
917.386
907.37
897.537
887.931
1095.94
1084.11
1072.38
1060.68
1049.03
1037.43
1025.91
1014.46
1003.12
991.884
980.773
969.797
958.966
948.289
937.775
927.431
917.265
907.283
897.485
887.912
1095.89
1083.97
1072.16
1060.41
1048.72
1037.1
1025.55
1014.1
1002.76
991.538
980.445
969.493
958.69
948.046
937.566
927.259
917.131
907.188
897.428
887.892
1095.84
1083.81
1071.93
1060.12
1048.38
1036.72
1025.16
1013.7
1002.37
991.156
980.084
969.158
958.386
947.777
937.336
927.07
916.983
907.083
897.365
887.871
1095.78
1083.64
1071.67
1059.79
1048
1036.31
1024.73
1013.26
1001.93
990.735
979.684
968.787
958.05
947.48
937.082
926.861
916.82
906.967
897.296
887.848
1095.71
1083.45
1071.38
1059.43
1047.58
1035.85
1024.25
1012.78
1001.45
990.269
979.243
968.378
957.68
947.152
936.801
926.629
916.641
906.839
897.22
887.822
1095.64
1083.25
1071.06
1059.03
1047.12
1035.35
1023.72
1012.24
1000.92
989.755
978.756
967.926
957.27
946.791
936.491
926.374
916.442
906.698
897.136
887.793
1095.56
1083.01
1070.71
1058.58
1046.61
1034.79
1023.14
1011.65
1000.33
989.188
978.218
967.428
956.818
946.391
936.149
926.092
916.223
906.542
897.043
887.762
1095.47
1082.76
1070.33
1058.09
1046.05
1034.18
1022.5
1011
999.686
988.561
977.624
966.877
956.318
945.95
935.771
925.781
915.98
906.369
896.94
887.728
1095.37
1082.48
1069.9
1057.55
1045.42
1033.5
1021.79
1010.28
998.972
987.869
976.969
966.269
955.767
945.462
935.353
925.437
915.713
906.179
896.827
887.69
1095.26
1082.17
1069.43
1056.96
1044.74
1032.75
1021
1009.48
998.182
987.105
976.244
965.596
955.157
944.923
934.891
925.056
915.416
905.968
896.701
887.647
1095.14
1081.82
1068.91
1056.3
1043.98
1031.93
1020.14
1008.6
997.313
986.264
975.447
964.857
954.487
944.331
934.383
924.638
915.091
905.737
896.565
887.603
2.73997e+06
2.73997e+06
2.73997e+06
2.73997e+06
2.73997e+06
2.73997e+06
2.73997e+06
2.73997e+06
2.73997e+06
2.73997e+06
2.73997e+06
2.73997e+06
2.73997e+06
2.73997e+06
2.73997e+06
2.73997e+06
2.73997e+06
2.73997e+06
2.73997e+06
2.73997e+06
2.73997e+06
2.73997e+06
2.73997e+06
2.73997e+06
2.73997e+06
2.73997e+06
2.73997e+06
2.73997e+06
2.73997e+06
2.73997e+06
2.73997e+06
2.73997e+06
2.73997e+06
2.73997e+06
2.73997e+06
2.73997e+06
2.73997e+06
2.73997e+06
2.73997e+06
2.73997e+06
2.73997e+06
2.73997e+06
2.73997e+06
2.73997e+06
2.73997e+06
2.73997e+06
2.73997e+06
2.73997e+06
2.73997e+06
2.73997e+06
2.73997e+06
2.73997e+06
2.73997e+06
2.73997e+06
2.73997e+06
2.73997e+06
2.73997e+06
2.73997e+06
2.73997e+06
2.73997e+06
2.73997e+06
2.73997e+06
2.73997e+06
2.73997e+06
2.73997e+06
2.73997e+06
2.73997e+06
2.73997e+06
2.73997e+06
2.73997e+06
2.73997e+06
2.73997e+06
2.73997e+06
2.73997e+06
2.73997e+06
2.73997e+06
2.73997e+06
2.73997e+06
2.73997e+06
2.73997e+06
657267
631068
598351
567651
542199
522132
506438
494039
484149
476269
470050
465167
461316
458234
455717
453632
451901
450533
449488
448627
447908
447303
446875
446612
446388
446198
446045
445920
445820
445741
445683
445650
445639
445649
445676
445722
445783
445858
445943
446036
446136
446238
446341
446441
446536
446625
446705
446776
446837
446889
446931
446963
446987
447005
447034
447058
447072
447077
447074
447065
447051
447033
447012
446988
446963
446936
446909
446881
446853
446824
446795
446767
446738
446711
446684
446657
446632
446607
446584
446561
199297
202191
201330
197803
192905
187678
182734
178307
174398
170913
167760
164880
162260
159896
157786
155918
154265
152809
151530
150398
149394
148508
147565
146484
145478
144614
143930
143346
142841
142409
142043
141740
141494
141299
141150
141045
140978
140945
140941
140961
141002
141058
141125
141197
141271
141343
141409
141467
141515
141552
141577
141591
141593
141587
141537
141481
141423
141363
141301
141237
141172
141105
141038
140970
140901
140833
140765
140696
140629
140562
140496
140431
140368
140307
140247
140189
140133
140080
140028
139978
57000
64118.3
71328
78145.9
84202.1
89328.2
93500.3
96775.3
99228.1
100920
101896
102196
101874
101001
99669.4
97981.8
96045.2
93961.1
91818.4
89687.6
87619.7
85650.9
83781.3
81995.4
80315.3
78747.9
77239.5
75833.4
74561.9
73441
72441.3
71545.6
70746.9
70037.1
69408.7
68855.2
68370.9
67949.9
67586.8
67276.4
67013
66791.1
66605.2
66449.5
66318.5
66207.1
66110.2
66023.2
65941.9
65863.7
65785.9
65706.6
65627.3
65534.4
65423.2
65306.9
65189.1
65069.7
64948.6
64825.7
64701.4
64575.9
64449.5
64322.5
64194.9
64067.2
63939.6
63812.4
63686.1
63561.1
63437.6
63316.1
63196.8
63080
62966
62855.2
62747.7
62643.7
62543.2
62446
14281
16523.5
19567
23377.3
27814.7
32682.6
37778.2
42910.5
47915.3
52654.8
57025.4
60932.4
64299.6
67073
69222.5
70743.1
71654.6
71999.1
71837.3
71243.1
70296.3
69077.4
67661.3
66111
64480.7
62816.5
61147.5
59501.7
57895
56328.8
54825.8
53405.3
52080.2
50845.6
49695.7
48628
47640.4
46730
45894.1
45129.3
44432.6
43800.5
43229.3
42714.9
42252.9
41838.5
41466.9
41133.1
40833.4
40562.9
40316.8
40092.1
39880.9
39676
39475
39279.7
39090.3
38905.9
38725.2
38547
38370.6
38195.5
38021.4
37847.7
37674.4
37501.4
37328.9
37157.3
36986.8
36817.6
36649.8
36483.9
36320.1
36158.9
36000.7
35845.9
35694.6
35547.1
35403.6
35263.6
6982.16
6919.62
7111.17
7632.58
8551.32
9903.72
11691.7
13900.2
16493.7
19413.1
22581.9
25922.4
29347.8
32767
36089.6
39230.7
42115.3
44685.9
46894.3
48709.3
50118.1
51124.6
51747.4
52016.3
51968.6
51646
51091.4
50347.3
49453.3
48444.2
47352.2
46203.9
45017.8
43817.7
42623.5
41451.7
40313.5
39216.7
38166.8
37168.1
36223.9
35336.7
34508
33738.5
33027.8
32374.8
31777.6
31233.5
30740.3
30295
29893.8
29529.3
29195.8
28888.7
28603.8
28338.2
28089.6
27855.5
27633.3
27420.8
27215.9
27016.7
26821.9
26630.2
26440.6
26252.7
26066.3
25881.3
25697.7
25515.1
25333.4
25152.5
24973.2
24796.1
24621
24447.9
24277.1
24108.8
23943.2
23779.9
6258.31
6150.23
5999.72
5837.88
5706.16
5654.76
5739.67
5998.91
6461.22
7149.76
8071.55
9230.21
10622.3
12232.3
14034.3
15993.1
18064.9
20199.2
22345.8
24453.1
26471
28354.5
30065.5
31574.8
32862
33918.4
34742.7
35339.5
35718.9
35896.5
35890.9
35723.2
35415
34988.3
34464.9
33863.8
33203.4
32500.4
31770.5
31027.1
30282
29545.3
28825.6
28129.8
27463.3
26830.4
26233.9
25675.6
25156.5
24676.4
24234.3
23828.5
23456.8
23116.2
22803.7
22516.7
22252.4
22008.3
21781.6
21569.6
21369.8
21179.5
20996.6
20819.3
20646.4
20476.9
20310.2
20145.5
19982.2
19819.6
19657
19493.9
19331
19168.6
19006.2
18843.7
18681
18518.5
18356.1
18193.8
5102.55
5210.94
5289.57
5331
5331.46
5293.2
5226.89
5148.96
5080.08
5044.73
5069.51
5175.77
5380.36
5697.85
6138.34
6708.9
7410.21
8235.44
9174.7
10213.4
11332.6
12509.3
13718.1
14932.2
16124.8
17270.2
18346
19334.1
20220.5
20995.3
21652.7
22191
22612
22920.4
23123.2
23229.2
23248
23191.4
23069.9
22893.3
22671.1
22412
22124.2
21815.4
21492.7
21162.2
20829.6
20499.5
20175.6
19861.4
19559.2
19271.1
18998.4
18742.3
18503
18280.6
18074.5
17884
17708
17544.7
17392.3
17248.8
17112.6
16982.5
16857.4
16736.5
16618.6
16502.6
16387.4
16272.1
16155.8
16038
15918.3
15796.2
15671.7
15544.4
15414.2
15281.4
15145.9
15007.8
3806.28
3920.79
4039.45
4158.19
4271.65
4373.73
4458.45
4521.1
4559.26
4573.54
4568.53
4551.54
4532.16
4522.28
4534.73
4580.81
4671.04
4814.67
5018.58
5286.92
5621.09
6019.74
6478.84
6991.85
7550.23
8142.77
8757.23
9381.72
10004.6
10614.7
11202
11758
12275.6
12749.5
13176.2
13553.9
13882.3
14162.2
14395.9
14586.4
14737.1
14851.5
14933.1
14985.2
15010.9
15013.3
14995.4
14959.9
14909.6
14846.8
14775.1
14697
14614.4
14529.2
14443.2
14358
14275
14195.4
14119.9
14048.4
13980.9
13917.1
13856.7
13799.6
13745.4
13693.7
13643.4
13593.4
13543
13491.3
13438
13382.1
13322.6
13258.6
13189.7
13115.8
13036.7
12952.6
12863.2
12768.8
2872.8
2940.38
3013.95
3093.9
3180.11
3271.82
3367.43
3464.5
3559.89
3650.08
3731.59
3801.49
3857.92
3900.55
3930.62
3950.45
3964.28
3977.71
3996.76
4027.8
4076.95
4149.15
4248.24
4376.75
4535.88
4725.36
4943.58
5187.77
5454.3
5738.89
6036.9
6343.54
6654.12
6964.3
7270.2
7568.45
7856.47
8131.37
8391.54
8636.25
8865.26
9078.7
9276.87
9460.16
9628.99
9783.76
9924.74
10052.2
10166.6
10268.3
10357.7
10435.9
10503.8
10562.3
10612.4
10655.1
10691.5
10722.7
10749.7
10774.8
10798.4
10820.8
10842.3
10863
10883.2
10902.6
10921
10938
10953.3
10966.7
10977.6
10985.2
10988.3
10986
10977.8
10963.6
10942.9
10915.5
10881
10840.2
2261.43
2300.39
2341.93
2386.47
2434.46
2486.38
2542.68
2603.63
2669.23
2739.09
2812.36
2887.73
2963.5
3037.72
3108.38
3173.64
3232.19
3282.76
3325.02
3359.86
3389.12
3415.3
3441.81
3471.61
3507.48
3551.9
3606.9
3673.96
3753.9
3846.93
3952.69
4070.34
4198.66
4336.23
4481.51
4632.93
4789.01
4948.29
5109.46
5271.41
5433.28
5594.4
5754.25
5912.47
6068.74
6222.76
6374.24
6522.8
6667.97
6809.38
6945.75
7076.49
7201.39
7320.36
7433.35
7540.36
7641.46
7736.85
7826.76
7911.85
7992.97
8070.76
8145.71
8218.2
8288.35