/*--------------------------------*- C++ -*----------------------------------*\
  =========                 |
  \\      /  F ield         | OpenFOAM: The Open Source CFD Toolbox
   \\    /   O peration     | Website:  https://openfoam.org
    \\  /    A nd           | Version:  13
     \\/     M anipulation  |
\*---------------------------------------------------------------------------*/
FoamFile
{
    format      ascii;
    class       volScalarField;
    location    "286";
    object      p;
}
// * * * * * * * * * * * * * * * * * * * * * * * * * * * * * * * * * * * * * //

dimensions      [0 2 -2 0 0 0 0];

internalField   nonuniform List<scalar> 
26820
(
0.976031
0.98432
1.003
1.02931
1.06079
1.09675
1.13646
0.975611
0.983897
1.00253
1.02877
1.06016
1.09599
1.13551
0.974829
0.983072
1.00161
1.02774
1.05895
1.09452
1.13366
0.973662
0.981824
1.00024
1.02619
1.05711
1.09231
1.13085
0.972114
0.980167
0.998426
1.02414
1.05468
1.08937
1.12713
0.97019
0.978112
0.996178
1.0216
1.05167
1.08572
1.12249
0.967899
0.975669
0.993509
1.01858
1.04808
1.08138
1.11696
0.96525
0.972853
0.990433
1.01509
1.04394
1.07635
1.11055
0.962252
0.969676
0.986968
1.01116
1.03926
1.07066
1.10329
0.958916
0.966155
0.983131
1.0068
1.03406
1.06434
1.09519
0.955256
0.962307
0.978941
1.00204
1.02838
1.05739
1.0863
0.951284
0.958151
0.97442
0.996883
1.02222
1.04986
1.07663
0.947015
0.953705
0.969589
0.991367
1.01562
1.04175
1.06623
0.942463
0.94899
0.96447
0.985509
1.00861
1.0331
1.05513
0.937645
0.944026
0.959086
0.979334
1.00121
1.02392
1.04339
0.932576
0.938835
0.953457
0.972865
0.993451
1.01424
1.03106
0.927272
0.933436
0.947602
0.966119
0.985353
1.00409
1.01822
0.921753
0.927857
0.941547
0.959116
0.97692
0.993452
1.0049
0.916034
0.922143
0.935374
0.95198
0.968287
0.982448
0.991238
0.910103
0.916278
0.929118
0.944884
0.959824
0.971688
0.978004
1.18267
1.2371
1.29868
1.36779
1.44458
1.52967
1.62393
1.72823
1.84352
1.97086
2.11142
2.26652
2.43759
2.62615
2.83394
3.06259
3.31502
3.59687
3.91057
4.25469
4.63003
5.03919
5.4846
5.96817
6.49143
7.05547
7.66057
8.306
8.98961
9.70745
10.4533
11.2183
11.99
12.7525
13.4847
14.1623
14.7513
15.2537
15.6374
15.8505
1.18151
1.23589
1.29738
1.36635
1.44298
1.5279
1.62196
1.72602
1.84104
1.96806
2.10827
2.26296
2.43355
2.62156
2.82872
3.05666
3.30829
3.58929
3.90196
4.24492
4.61891
5.0265
5.47009
5.95156
6.47241
7.03364
7.63552
8.27724
8.95659
9.66956
10.4099
11.1686
11.9333
12.6879
13.4117
14.08
14.6605
15.1549
15.5307
15.7155
1.17928
1.23354
1.29487
1.3636
1.43994
1.52453
1.61822
1.72186
1.83638
1.96285
2.10241
2.25636
2.4261
2.61315
2.8192
3.04587
3.29604
3.57534
3.88604
4.22676
4.59814
5.0027
5.44281
5.92025
6.43645
6.99232
7.58804
8.22268
8.89392
9.59765
10.3275
11.0744
11.8258
12.5658
13.2735
13.9248
14.4871
14.9625
15.3196
15.4757
1.17593
1.22998
1.29107
1.35943
1.43534
1.51943
1.61255
1.71554
1.82932
1.95493
2.09352
2.24635
2.41481
2.60039
2.80476
3.0295
3.27745
3.55412
3.86184
4.19915
4.56658
4.96659
5.40144
5.87282
6.38201
6.92983
7.51626
8.14025
8.79931
9.48915
10.2032
10.9323
11.6639
12.3817
13.0651
13.6903
14.2239
14.6684
14.9948
15.1205
1.1715
1.22526
1.28602
1.35389
1.42921
1.51265
1.60502
1.70714
1.81993
1.9444
2.08169
2.23303
2.39979
2.58341
2.78555
3.00772
3.2527
3.52591
3.8297
4.16248
4.52469
4.91867
5.34657
5.80992
6.30986
6.847
7.42118
8.0311
8.67406
9.34556
10.0388
10.7444
11.4497
12.1383
12.7894
13.3794
13.8745
14.2774
14.561
14.6495
1.16602
1.21937
1.27973
1.347
1.42159
1.50421
1.59565
1.6967
1.80825
1.93131
2.06698
2.21648
2.38113
2.56233
2.76169
2.98069
3.22198
3.49093
3.78984
4.11703
4.47277
4.85931
5.27861
5.73204
6.22054
6.74452
7.30357
7.89614
8.51927
9.16817
9.83583
10.5125
11.1854
11.8379
12.4492
12.9957
13.443
13.7942
14.0233
14.0666
1.15948
1.21236
1.27221
1.33877
1.41249
1.49414
1.58447
1.68423
1.79431
1.91569
2.04945
2.19675
2.35888
2.5372
2.73327
2.94848
3.1854
3.44927
3.74239
4.06294
4.41101
4.78871
5.19782
5.6395
6.11447
6.62288
7.16404
7.73611
8.33581
8.95805
9.59549
10.2381
10.8727
11.4828
12.0469
12.5419
12.9325
13.2224
13.3861
13.3761
1.15193
1.20422
1.2635
1.32922
1.40194
1.48246
1.57149
1.66977
1.77815
1.89759
2.02912
2.17388
2.33311
2.50811
2.70036
2.9112
3.14307
3.40109
3.68753
4.00041
4.33966
4.70719
5.10458
5.53275
5.99218
6.48271
7.00335
7.55193
8.1248
8.7165
9.31934
9.92297
10.5139
11.0752
11.5854
12.0212
12.3467
12.5663
12.6541
12.5836
1.14337
1.195
1.2536
1.31837
1.38995
1.46919
1.55676
1.65336
1.75982
1.87705
2.00607
2.14795
2.30389
2.47513
2.66308
2.86899
3.09516
3.34657
3.62548
3.92974
4.25904
4.61513
4.99935
5.41236
5.85433
6.32482
6.82247
7.34472
7.88756
8.44511
9.00926
9.5693
10.1113
10.6182
11.0681
11.4376
11.6902
11.8313
11.8336
11.6957
1.13385
1.1847
1.24255
1.30626
1.37657
1.45438
1.54032
1.63504
1.73935
1.85414
1.98036
2.11904
2.27133
2.43839
2.62156
2.82199
3.04184
3.28593
3.5565
3.85121
4.16952
4.51296
4.88264
5.27892
5.70166
6.15007
6.62241
7.11573
7.62557
8.14562
8.66734
9.17956
9.66798
10.1152
10.4988
10.7957
10.9683
11.0236
10.9314
10.7204
1.12338
1.17337
1.23037
1.2929
1.36181
1.43806
1.52221
1.61486
1.71682
1.82891
1.95206
2.08724
2.23552
2.398
2.57593
2.77037
2.9833
3.2194
3.48086
3.76514
4.07148
4.40115
4.75501
5.1331
5.53496
5.95942
6.40433
6.86631
7.34045
7.81995
8.29581
8.7564
9.18697
9.56974
9.88196
10.1004
10.1869
10.1499
9.95506
9.66635
1.11199
1.16103
1.2171
1.27834
1.34573
1.42027
1.50246
1.59288
1.69227
1.80144
1.92125
2.05263
2.19657
2.35409
2.52635
2.71431
2.91976
3.14723
3.39885
3.6719
3.96533
4.2802
4.61704
4.97561
5.35507
5.75387
6.16944
6.59792
7.03392
7.47016
7.89711
8.30268
8.67164
8.98583
9.22203
9.35702
9.35211
9.21698
8.91273
8.54304
1.09972
1.14771
1.20277
1.2626
1.32835
1.40106
1.48114
1.56914
1.66577
1.7718
1.88803
2.01532
2.1546
2.3068
2.47298
2.65399
2.85145
3.06967
3.3108
3.57187
3.85154
4.15064
4.4694
4.80723
5.16293
5.53454
5.91903
6.31209
6.70782
7.09842
7.47384
7.82147
8.12559
8.36765
8.52395
8.57102
8.47045
8.23223
7.81325
7.36058
1.08659
1.13346
1.18742
1.24572
1.30972
1.38046
1.4583
1.54372
1.6374
1.74008
1.85249
1.97542
2.10973
2.25627
2.41599
2.58963
2.7786
2.98703
3.21704
3.46543
3.73058
4.01304
4.31274
4.62875
4.95948
5.30255
5.65449
6.01048
6.3641
6.70704
7.02871
7.31599
7.55263
7.71966
7.79295
7.74855
7.54887
7.20419
6.66638
6.13005
1.07263
1.11829
1.17108
1.22774
1.28988
1.35855
1.43399
1.51667
1.60723
1.70636
1.81472
1.93304
2.06211
2.20267
2.35556
2.52144
2.70147
2.8996
3.11792
3.35302
3.60294
3.86799
4.14779
4.44102
4.74574
5.05912
5.37723
5.69477
6.00478
6.29843
6.56458
6.78958
6.95669
7.0465
7.03448
6.89608
6.59482
6.14195
5.48217
4.86314
1.05783
1.10227
1.15381
1.2087
1.26888
1.33536
1.40827
1.48806
1.57534
1.67072
1.77483
1.88831
2.01186
2.14615
2.2919
2.44964
2.62032
2.80769
3.01383
3.23507
3.46915
3.71612
3.97526
4.24492
4.52274
4.80548
5.08874
5.36671
5.63194
5.87505
6.08435
6.24571
6.34187
6.35297
6.25417
6.02025
5.61598
5.05428
4.27085
3.57194
1.04218
1.08546
1.13562
1.18862
1.24677
1.31096
1.38121
1.45797
1.54181
1.63328
1.73293
1.84135
1.95915
2.0869
2.22519
2.37447
2.53544
2.71163
2.90513
3.11203
3.32975
3.55805
3.79592
4.04133
4.29155
4.54289
4.79051
5.0281
5.2477
5.43941
5.59103
5.68791
5.71231
5.64397
5.45777
5.1278
4.62007
3.95002
3.04287
2.26884
1.0256
1.06795
1.11655
1.16754
1.22361
1.2854
1.35287
1.42648
1.50673
1.59412
1.68913
1.79229
1.90411
2.02508
2.15565
2.29617
2.44709
2.61175
2.79223
2.98437
3.18527
3.39444
3.61053
3.83117
4.05324
4.27264
4.48407
4.68075
4.85422
4.99407
5.08762
5.11972
5.07222
4.92443
4.65105
4.2255
3.61495
2.83822
1.80893
0.96643
1.00784
1.04992
1.0966
1.1455
1.19946
1.25873
1.32332
1.39365
1.47018
1.55334
1.64356
1.74127
1.84692
1.96087
2.08349
2.21498
2.35558
2.50839
2.67552
2.85255
3.03627
3.22593
3.41987
3.61536
3.80891
3.99602
4.17095
4.32646
4.45363
4.54157
4.57713
4.54472
4.4258
4.19929
3.83979
3.32013
2.60848
1.72804
0.579789
-0.322558
0.988949
1.03141
1.07575
1.12258
1.17437
1.23103
1.29263
1.35958
1.43226
1.51105
1.59632
1.68843
1.78772
1.89447
2.00892
2.13117
2.2612
2.4019
2.5554
2.71706
2.88332
3.0532
3.22472
3.39482
3.55965
3.71432
3.85268
3.96706
4.04809
4.08445
4.06256
3.96644
3.77719
3.47343
3.0297
2.41836
1.60843
0.628511
-0.633948
-1.58544
0.971078
1.01205
1.05372
1.09885
1.14841
1.20235
1.26088
1.32434
1.39306
1.46736
1.54755
1.6339
1.72668
1.82606
1.93216
2.04498
2.16424
2.29262
2.43229
2.57836
2.72697
2.87689
3.02585
3.17046
3.30653
3.42882
3.53076
3.60432
3.6397
3.6252
3.54684
3.38832
3.13047
2.75164
2.22637
1.52673
0.622369
-0.451604
-1.82207
-2.8097
0.954571
0.991115
1.0307
1.07439
1.12162
1.17275
1.22813
1.28802
1.35268
1.42238
1.49737
1.57784
1.66397
1.75584
1.85343
1.95668
2.06501
2.18091
2.30659
2.43694
2.56778
2.69767
2.82403
2.94319
3.05063
3.14077
3.20669
3.23998
3.23051
3.16622
3.03283
2.81374
2.48958
2.03854
1.43521
0.651552
-0.342443
-1.50389
-2.97539
-3.983
0.937338
0.969546
1.00721
1.04929
1.09406
1.14231
1.19448
1.25071
1.31122
1.37622
1.4459
1.52039
1.59975
1.68399
1.77296
1.86652
1.96381
2.06713
2.17872
2.29327
2.40631
2.51617
2.62003
2.7139
2.79298
2.85139
2.88188
2.87574
2.82252
2.70987
2.52326
2.2459
1.8583
1.33856
0.661369
-0.201167
-1.2791
-2.52035
-4.08445
-5.09573
0.918706
0.947621
0.983453
1.02359
1.06577
1.11111
1.15999
1.21249
1.26876
1.32899
1.39328
1.46168
1.53419
1.61072
1.69098
1.77475
1.86093
1.95161
2.04905
2.14781
2.24309
2.33304
2.41457
2.48344
2.5346
2.56187
2.55774
2.51322
2.41762
2.25836
2.02075
1.68787
1.24021
0.655877
-0.0902742
-1.02573
-2.18108
-3.49382
-5.13768
-6.14193
0.898979
0.925398
0.959355
0.997319
1.03685
1.07921
1.12475
1.17344
1.22542
1.28081
1.33963
1.40188
1.46746
1.5362
1.60769
1.68164
1.75668
1.83471
1.918
2.00101
2.07865
2.14889
2.20838
2.25267
2.27646
2.27334
2.23558
2.15396
2.01761
1.81381
1.52775
1.14251
0.63863
-0.00561093
-0.815191
-1.81682
-3.04218
-4.41968
-6.12235
-7.11428
0.878535
0.902883
0.934868
0.970514
1.00735
1.0467
1.08883
1.13367
1.1813
1.23178
1.28509
1.34113
1.39974
1.46064
1.52332
1.58744
1.65134
1.7168
1.78595
1.85333
1.91352
1.96431
2.00215
2.02237
2.01948
1.98688
1.91665
1.79942
1.62418
1.37815
1.04653
0.612451
0.0566387
-0.642335
-1.50922
-2.56958
-3.85599
-5.29208
-7.03074
-8.00331
0.857578
0.880041
0.910005
0.943237
0.977333
1.01364
1.05232
1.09325
1.13649
1.18202
1.22977
1.27958
1.33118
1.38423
1.4381
1.49238
1.54521
1.59818
1.65325
1.70518
1.74819
1.77988
1.79653
1.7933
1.76455
1.7035
1.60212
1.45093
1.23888
0.953193
0.579158
0.100085
-0.503009
-1.2511
-2.16863
-3.27962
-4.61716
-6.10105
-7.85971
-8.80143
0.836205
0.856866
0.884806
0.91555
0.946874
0.980096
1.01529
1.05228
1.09109
1.13165
1.17382
1.21736
1.26194
1.30715
1.35222
1.39671
1.43855
1.47911
1.52026
1.55698
1.58313
1.59615
1.59216
1.5662
1.51249
1.42415
1.29306
1.10973
0.863121
0.540546
0.12748
-0.392472
-1.03789
-1.82913
-2.7902
-3.94296
-5.32149
-6.83969
-8.60534
-9.5033
0.814484
0.833393
0.85931
0.887507
0.916029
0.946141
0.97781
1.01084
1.0452
1.08078
1.11735
1.15463
1.1922
1.22959
1.26591
1.30065
1.33163
1.35987
1.38735
1.40914
1.4188
1.41364
1.38963
1.34173
1.26406
1.14969
0.990474
0.776945
0.498169
0.141641
-0.306885
-0.863394
-1.54594
-2.3741
-3.37141
-4.55607
-5.96539
-7.50622
-9.26229
-10.1052
0.792476
0.809671
0.833558
0.859161
0.884862
0.911843
0.939971
0.969028
0.998932
1.02951
1.06049
1.09153
1.12212
1.15172
1.17936
1.20445
1.22472
1.2408
1.25488
1.26204
1.25565
1.23283
1.18949
1.12051
1.01996
0.880908
0.695232
0.45356
0.145132
-0.242289
-0.722567
-1.31116
-2.02549
-2.88418
-3.91049
-5.11719
-6.54669
-8.09841
-9.82561
-10.6051
0.770236
0.785746
0.807587
0.830563
0.853434
0.877271
0.901847
0.926923
0.952371
0.977962
1.00337
1.02819
1.05185
1.07373
1.09279
1.10833
1.11806
1.12226
1.12318
1.11604
1.09406
1.05419
0.992254
0.903109
0.780836
0.618514
0.408119
0.140437
-0.195047
-0.610212
-1.11844
-1.73457
-2.47525
-3.358
-4.40588
-5.62573
-7.06348
-8.61301
-10.2917
-11.0028
0.747817
0.761659
0.781438
0.801765
0.821808
0.842493
0.863512
0.884613
0.905617
0.926241
0.946105
0.964751
0.981538
0.995789
1.00637
1.01252
1.01192
1.0045
0.992548
0.971508
0.93444
0.87813
0.798384
0.690051
0.547248
0.363128
0.12981
-0.161697
-0.521588
-0.961304
-1.49366
-2.13271
-2.89429
-3.79463
-4.85633
-6.0808
-7.51445
-9.04859
-10.6589
-11.3002
0.725265
0.737451
0.755155
0.77282
0.790043
0.807575
0.825044
0.842184
0.858765
0.874453
0.888819
0.90135
0.911343
0.918062
0.920309
0.917231
0.906508
0.887774
0.863272
0.828749
0.777127
0.705046
0.608308
0.481797
0.319698
0.115286
-0.139125
-0.452245
-0.83388
-1.29494
-1.84759
-2.50504
-3.28209
-4.1936
-5.26149
-6.48184
-7.89999
-9.40531
-10.9274
-11.5005
0.702623
0.713168
0.728781
0.74378
0.758201
0.772584
0.786517
0.799719
0.811909
0.822703
0.831627
0.838115
0.841408
0.840713
0.834776
0.822655
0.802063
0.772311
0.735619
0.688064
0.62245
0.535288
0.422406
0.278753
0.098616
-0.124562
-0.398226
-0.730746
-1.13147
-1.61074
-2.17992
-2.85128
-3.63847
-4.55495
-5.62177
-6.82927
-8.22171
-9.68407
-11.0993
-11.6086
0.679936
0.688851
0.702362
0.714694
0.72634
0.737582
0.748005
0.757299
0.765138
0.771092
0.774641
0.775172
0.771873
0.763897
0.749944
0.728987
0.698789
0.65834
0.609841
0.549731
0.470706
0.369172
0.241014
0.0812696
-0.115634
-0.356051
-0.647134
-0.996878
-1.41411
-1.90848
-2.49049
-3.17142
-3.96369
-4.87923
-5.93814
-7.1243
-8.48206
-9.88647
-11.1784
-11.6308
0.657246
0.664541
0.675941
0.685613
0.694519
0.702635
0.70958
0.715005
0.718544
0.719719
0.717972
0.712643
0.702872
0.687763
0.66598
0.636408
0.596888
0.546073
0.48617
0.413999
0.322161
0.20698
0.0644241
-0.110354
-0.322756
-0.578907
-0.885622
-1.25044
-1.68161
-2.18807
-2.7794
-3.46582
-4.2584
-5.16737
-6.21175
-7.36873
-8.68451
-10.0153
-11.1709
-11.5746
0.634597
0.640275
0.649566
0.656585
0.662797
0.667803
0.671315
0.672916
0.672213
0.668683
0.661729
0.650648
0.634538
0.612456
0.583041
0.545088
0.496549
0.435707
0.364823
0.281096
0.177057
0.0489574
-0.107118
-0.295889
-0.522544
-0.79293
-1.11349
-1.49129
-1.93396
-2.44968
-3.04705
-3.7351
-4.52359
-5.4208
-6.44329
-7.56528
-8.83399
-10.0752
-11.0852
-11.4485
0.612033
0.616082
0.623281
0.627653
0.631228
0.633143
0.633276
0.631103
0.626227
0.618071
0.606009
0.589294
0.566989
0.538104
0.501269
0.45518
0.397942
0.327418
0.245992
0.151215
0.0355829
-0.104712
-0.273426
-0.475139
-0.714795
-0.997953
-1.33066
-1.71947
-2.17137
-2.6937
-3.29402
-3.98012
-4.76062
-5.64146
-6.63272
-7.72057
-8.93702
-10.0728
-10.933
-11.2626
0.589623
0.591994
0.597149
0.598872
0.599885
0.598727
0.595549
0.589656
0.580686
0.567994
0.550934
0.528714
0.500368
0.464862
0.42083
0.366855
0.301254
0.221394
0.12989
0.0245899
-0.102005
-0.253758
-0.434228
-0.647855
-0.899317
-1.19386
-1.5371
-1.93505
-2.39401
-2.92049
-3.52098
-4.20187
-4.97098
-5.8324
-6.78408
-7.84103
-8.99604
-10.0159
-10.7279
-11.0283
0.567376
0.568002
0.571189
0.570249
0.568782
0.564566
0.558147
0.548588
0.535605
0.518464
0.496513
0.468913
0.434679
0.392727
0.341719
0.280096
0.206474
0.117629
0.0164962
-0.0988282
-0.235794
-0.398322
-0.589724
-0.814311
-1.07646
-1.38109
-1.73336
-2.13873
-2.6028
-3.1312
-3.7294
-4.4023
-5.15689
-5.99699
-6.90458
-7.93021
-9.01496
-9.91782
-10.4893
-10.7594
0.898799
0.904142
0.914762
0.927217
0.937873
0.943989
0.943936
0.880677
0.884412
0.891405
0.898735
0.903353
0.90303
0.89692
0.859775
0.861832
0.865348
0.868002
0.867449
0.861983
0.851232
0.836063
0.836571
0.836952
0.835519
0.830681
0.821275
0.807579
0.809654
0.808818
0.806511
0.801714
0.793612
0.781564
0.766344
0.780795
0.778873
0.774441
0.767129
0.756828
0.743322
0.727675
0.749866
0.747156
0.741229
0.732279
0.720768
0.706796
0.691553
0.717368
0.714179
0.707388
0.697621
0.685756
0.672097
0.657837
0.68389
0.68051
0.673425
0.663549
0.652013
0.639231
0.626322
0.650059
0.64673
0.63982
0.63039
0.619674
0.608128
0.59675
0.616494
0.613397
0.607004
0.598403
0.588822
0.578706
0.568918
0.583759
0.581007
0.575344
0.567796
0.5595
0.550864
0.542615
0.552326
0.549973
0.545137
0.538727
0.531748
0.524551
0.517739
0.522551
0.520604
0.516599
0.511309
0.505578
0.499701
0.494169
0.494675
0.493107
0.489879
0.485619
0.481018
0.476314
0.471904
0.468824
0.467589
0.465043
0.461682
0.458056
0.454349
0.45088
0.445028
0.444075
0.442105
0.439502
0.436693
0.43382
0.431134
0.42324
0.422514
0.421012
0.419023
0.416874
0.414672
0.412613
0.403359
0.402815
0.401684
0.400184
0.398562
0.396895
0.395337
0.385245
0.384839
0.383994
0.382871
0.381655
0.380401
0.37923
0.368744
0.368444
0.367818
0.366986
0.366082
0.365147
0.364274
0.353687
0.353465
0.353002
0.352385
0.351715
0.351019
0.350371
0.339919
0.339756
0.339416
0.338961
0.338467
0.337951
0.337472
0.327281
0.32716
0.326909
0.326573
0.326207
0.325824
0.32547
0.315643
0.315555
0.31537
0.315122
0.314851
0.314567
0.314305
0.304874
0.304808
0.304671
0.304486
0.304285
0.304073
0.303878
0.294879
0.29483
0.294728
0.29459
0.294441
0.294282
0.294137
0.285559
0.285522
0.285445
0.285342
0.285229
0.285109
0.285
0.276855
0.276827
0.276769
0.276691
0.276606
0.276515
0.276432
0.268701
0.268679
0.268635
0.268575
0.268509
0.26844
0.268377
0.261069
0.261053
0.261018
0.260972
0.260922
0.260868
0.260819
0.253928
0.253915
0.253888
0.253852
0.253812
0.25377
0.253732
0.247281
0.247271
0.24725
0.247221
0.24719
0.247157
0.247126
0.241131
0.241123
0.241106
0.241083
0.241058
0.241031
0.241007
0.235517
0.23551
0.235496
0.235478
0.235457
0.235435
0.235415
0.230481
0.230475
0.230464
0.230448
0.230431
0.230413
0.230397
0.226109
0.226104
0.226094
0.226081
0.226067
0.226051
0.226037
0.222507
0.222503
0.222494
0.222483
0.22247
0.222457
0.222444
0.219841
0.219837
0.219829
0.219819
0.219808
0.219796
0.219784
0.21834
0.218336
0.218329
0.218319
0.218309
0.218298
0.218287
0.936256
0.916241
0.89493
0.876506
0.858611
0.839844
0.82045
0.800872
0.781217
0.761449
0.741565
0.721598
0.701585
0.681552
0.661519
0.64151
0.621548
0.601658
0.581863
0.562192
0.887182
0.865034
0.842897
0.825649
0.809642
0.792748
0.775339
0.758038
0.740909
0.723819
0.706722
0.689646
0.672623
0.655661
0.638768
0.62195
0.605214
0.588566
0.571995
0.555512
0.839326
0.819673
0.800384
0.785444
0.771503
0.75666
0.741338
0.726157
0.711177
0.69626
0.681365
0.666529
0.651779
0.637121
0.622556
0.608088
0.593723
0.579472
0.565342
0.551354
0.794387
0.777166
0.760112
0.746523
0.733815
0.720477
0.706848
0.693435
0.680281
0.667262
0.654334
0.641514
0.628816
0.616235
0.60376
0.591383
0.579098
0.566898
0.554766
0.542712
0.752723
0.737878
0.723111
0.711116
0.699937
0.688358
0.676602
0.665055
0.653749
0.642585
0.631522
0.620569
0.60974
0.599029
0.58843
0.57794
0.567558
0.557283
0.54711
0.537049
0.71432
0.701663
0.688985
0.678451
0.668608
0.658503
0.648282
0.638243
0.62842
0.618737
0.60916
0.599694
0.590346
0.581111
0.57198
0.562945
0.554
0.545141
0.536355
0.527652
0.678973
0.66827
0.657465
0.648296
0.639714
0.630985
0.6222
0.613582
0.605162
0.596884
0.588716
0.580663
0.572727
0.564904
0.557187
0.54957
0.542049
0.534619
0.527272
0.520013
0.646339
0.637325
0.628147
0.620207
0.612758
0.605233
0.597683
0.590274
0.583032
0.575916
0.5689
0.561984
0.555169
0.548453
0.541828
0.535288
0.52883
0.522451
0.516141
0.50991
0.616084
0.608517
0.60075
0.593925
0.58751
0.58107
0.574627
0.568308
0.562136
0.556079
0.55012
0.544256
0.538488
0.532815
0.527229
0.521727
0.516305
0.51096
0.505682
0.500478
0.587821
0.58147
0.574903
0.569059
0.56356
0.558061
0.552571
0.547183
0.541919
0.536756
0.531678
0.526683
0.521771
0.51694
0.512186
0.507505
0.502894
0.498351
0.49387
0.489457
0.561291
0.555972
0.550439
0.545475
0.540802
0.536145
0.531503
0.526949
0.522502
0.518145
0.513865
0.509661
0.505532
0.501477
0.497493
0.493576
0.489724
0.485935
0.482202
0.478531
0.536204
0.531749
0.527091
0.522892
0.51894
0.515009
0.511093
0.507251
0.503499
0.499825
0.496218
0.492676
0.489199
0.485788
0.482438
0.479147
0.475914
0.472738
0.469613
0.466546
0.512449
0.508733
0.504831
0.501311
0.498002
0.494715
0.491442
0.488232
0.4851
0.482036
0.47903
0.476082
0.473193
0.47036
0.467582
0.464858
0.462185
0.459562
0.456986
0.454462
0.489863
0.486769
0.483508
0.480569
0.477813
0.475077
0.472351
0.469678
0.467071
0.464522
0.462024
0.459576
0.457178
0.45483
0.45253
0.450277
0.44807
0.445908
0.443789
0.441715
0.468456
0.465895
0.463188
0.460758
0.458486
0.45623
0.453982
0.451779
0.449633
0.447537
0.445485
0.443476
0.44151
0.439588
0.437708
0.435869
0.434071
0.432313
0.430592
0.428911
0.448149
0.446037
0.443798
0.441798
0.439933
0.438082
0.436236
0.434428
0.432668
0.430951
0.429271
0.427629
0.426024
0.424457
0.422926
0.421432
0.419973
0.41855
0.41716
0.415807
0.429002
0.427272
0.425433
0.4238
0.422285
0.420779
0.419278
0.417808
0.416379
0.414987
0.413626
0.412298
0.411002
0.409738
0.408506
0.407306
0.406136
0.404998
0.403889
0.402812
0.410961
0.409549
0.408045
0.406717
0.405489
0.404269
0.403052
0.401861
0.400705
0.39958
0.398483
0.397413
0.39637
0.395356
0.394369
0.39341
0.392477
0.391572
0.390694
0.389843
0.39407
0.392925
0.391701
0.390628
0.389641
0.38866
0.38768
0.386723
0.385795
0.384894
0.384016
0.383161
0.38233
0.381522
0.380739
0.37998
0.379244
0.378531
0.377841
0.377176
0.378263
0.377337
0.376343
0.375478
0.374685
0.373897
0.373111
0.372342
0.371599
0.370879
0.370178
0.369497
0.368836
0.368196
0.367577
0.366978
0.366399
0.365841
0.365303
0.364786
0.363541
0.362794
0.361992
0.361297
0.360662
0.360033
0.359404
0.358791
0.358199
0.357625
0.357069
0.356529
0.356007
0.355503
0.355016
0.354546
0.354095
0.353661
0.353244
0.352846
0.349815
0.349214
0.348565
0.348007
0.3475
0.346996
0.346494
0.346004
0.345532
0.345076
0.344635
0.344207
0.343795
0.343398
0.343015
0.342648
0.342296
0.34196
0.341638
0.341333
0.337051
0.336568
0.336045
0.335597
0.335192
0.334791
0.33439
0.333999
0.333624
0.333262
0.332913
0.332575
0.332251
0.331939
0.33164
0.331353
0.33108
0.33082
0.330573
0.330339
0.32515
0.324762
0.32434
0.32398
0.323655
0.323334
0.323014
0.322702
0.322403
0.322116
0.321839
0.321572
0.321315
0.32107
0.320836
0.320613
0.320401
0.3202
0.32001
0.319832
0.314062
0.31375
0.313409
0.31312
0.312861
0.312604
0.312348
0.312099
0.311861
0.311632
0.311413
0.311202
0.311
0.310807
0.310623
0.310449
0.310284
0.310129
0.309984
0.309848
0.303693
0.303441
0.303166
0.302933
0.302725
0.302519
0.302314
0.302115
0.301925
0.301743
0.301568
0.3014
0.301241
0.301089
0.300945
0.300808
0.30068
0.30056
0.300448
0.300344
0.293994
0.293792
0.29357
0.293382
0.293215
0.29305
0.292886
0.292726
0.292575
0.292429
0.29229
0.292157
0.292031
0.291911
0.291798
0.291691
0.291591
0.291498
0.291412
0.291332
0.28489
0.284727
0.284548
0.284397
0.284262
0.28413
0.283998
0.28387
0.283749
0.283633
0.283522
0.283416
0.283316
0.283221
0.283131
0.283048
0.282969
0.282897
0.28283
0.282769
0.276346
0.276216
0.276072
0.27595
0.275842
0.275736
0.27563
0.275528
0.275431
0.275338
0.27525
0.275166
0.275086
0.275011
0.27494
0.274874
0.274813
0.274756
0.274704
0.274657
0.268309
0.268205
0.26809
0.267992
0.267905
0.26782
0.267736
0.267654
0.267576
0.267502
0.267432
0.267365
0.267302
0.267242
0.267186
0.267134
0.267086
0.267041
0.267001
0.266964
0.260766
0.260684
0.260592
0.260514
0.260445
0.260377
0.260309
0.260244
0.260183
0.260124
0.260068
0.260015
0.259965
0.259917
0.259873
0.259832
0.259794
0.259759
0.259727
0.259699
0.253689
0.253625
0.253553
0.253491
0.253436
0.253382
0.253329
0.253278
0.253229
0.253183
0.253138
0.253096
0.253057
0.253019
0.252984
0.252952
0.252922
0.252895
0.25287
0.252847
0.247092
0.247043
0.246987
0.246939
0.246896
0.246854
0.246812
0.246772
0.246734
0.246697
0.246663
0.24663
0.246599
0.246569
0.246542
0.246516
0.246493
0.246471
0.246451
0.246433
0.24098
0.240943
0.2409
0.240863
0.240829
0.240797
0.240765
0.240734
0.240705
0.240677
0.24065
0.240624
0.2406
0.240577
0.240556
0.240536
0.240517
0.2405
0.240484
0.24047
0.235393
0.235367
0.235335
0.235307
0.235282
0.235258
0.235234
0.23521
0.235188
0.235167
0.235146
0.235127
0.235108
0.235091
0.235074
0.235059
0.235044
0.235031
0.235018
0.235007
0.230379
0.23036
0.230338
0.230318
0.230299
0.230281
0.230264
0.230247
0.23023
0.230214
0.230199
0.230184
0.23017
0.230157
0.230144
0.230132
0.230121
0.23011
0.2301
0.230091
0.226022
0.226011
0.225996
0.225981
0.225968
0.225956
0.225943
0.225931
0.225919
0.225908
0.225897
0.225886
0.225876
0.225866
0.225856
0.225847
0.225838
0.22583
0.225821
0.225814
0.222433
0.222426
0.222416
0.222407
0.222398
0.222389
0.222381
0.222373
0.222364
0.222356
0.222348
0.222341
0.222333
0.222325
0.222318
0.222311
0.222304
0.222297
0.22229
0.222284
0.219775
0.219771
0.219765
0.219759
0.219753
0.219748
0.219742
0.219736
0.219731
0.219725
0.219719
0.219713
0.219708
0.219702
0.219696
0.219691
0.219685
0.219679
0.219674
0.219668
0.218279
0.218276
0.218272
0.218268
0.218264
0.218259
0.218255
0.218251
0.218247
0.218242
0.218238
0.218233
0.218228
0.218224
0.218219
0.218214
0.218209
0.218204
0.218199
0.218194
-10.4672
-10.1648
-9.85371
-9.54351
-9.24106
-8.94904
-8.66708
-8.39355
-8.12693
-7.86627
-7.61115
-7.36133
-7.1164
-6.87581
-6.63892
-6.40512
-6.17393
-5.94498
-5.71799
-5.4927
-5.26887
-5.0463
-4.82482
-4.60435
-4.38489
-4.16655
-3.9495
-3.73403
-3.52051
-3.30942
-3.10135
-2.89707
-2.69735
-2.50296
-2.31471
-2.1334
-1.95976
-1.79444
-1.63801
-1.49089
-1.35336
-1.22553
-1.10734
-0.998607
-0.898965
-0.807952
-0.725013
-0.649512
-0.580861
-0.518501
-0.4618
-0.410157
-0.363002
-0.319813
-0.280135
-0.243576
-0.209793
-0.178485
-0.149375
-0.122236
-0.0968963
-0.073175
-0.0509148
-0.0300081
-0.0103793
0.00801304
0.0251833
0.0411914
0.0561323
0.0701053
0.0832234
0.0955647
0.107151
0.118022
0.128255
0.137947
0.147135
0.155877
0.164207
0.172044
-10.2334
-9.97027
-9.70252
-9.43317
-9.16286
-8.89329
-8.62591
-8.36151
-8.10073
-7.84424
-7.59251
-7.34564
-7.10334
-6.86503
-6.63007
-6.39789
-6.16804
-5.94022
-5.71417
-5.48969
-5.26654
-5.04455
-4.82357
-4.60353
-4.38444
-4.1664
-3.94961
-3.73435
-3.52101
-3.31006
-3.10211
-2.89791
-2.69825
-2.5039
-2.31566
-2.13435
-1.96068
-1.79533
-1.63886
-1.49168
-1.35408
-1.22617
-1.10792
-0.999103
-0.899385
-0.8083
-0.725293
-0.64973
-0.581023
-0.518613
-0.461868
-0.410187
-0.363001
-0.319787
-0.280089
-0.243514
-0.209719
-0.178402
-0.149285
-0.122142
-0.0968006
-0.0730789
-0.0508194
-0.0299142
-0.0102876
0.00810218
0.0252696
0.0412746
0.0562122
0.0701816
0.0832957
0.095633
0.107215
0.118083
0.128311
0.137999
0.147183
0.155923
0.164249
0.172083
-9.78788
-9.61392
-9.41803
-9.2069
-8.98058
-8.74447
-8.5047
-8.2643
-8.02415
-7.78467
-7.54631
-7.30952
-7.07459
-6.84169
-6.6108
-6.3818
-6.15456
-5.92894
-5.70479
-5.48192
-5.26017
-5.03935
-4.81937
-4.60018
-4.38181
-4.1644
-3.94814
-3.73334
-3.52039
-3.30976
-3.10206
-2.89809
-2.6986
-2.50439
-2.31626
-2.13501
-1.96139
-1.79606
-1.63958
-1.49238
-1.35474
-1.22679
-1.10847
-0.99959
-0.899803
-0.808647
-0.725571
-0.649941
-0.581174
-0.518709
-0.461915
-0.410193
-0.362972
-0.319729
-0.280008
-0.243415
-0.209606
-0.17828
-0.149157
-0.12201
-0.0966673
-0.0729461
-0.0506884
-0.029786
-0.0101629
0.00822292
0.025386
0.0413865
0.0563192
0.0702834
0.0833921
0.0957239
0.107301
0.118163
0.128386
0.138069
0.147248
0.155982
0.164304
0.172134
-8.9914
-8.91041
-8.80957
-8.69376
-8.55568
-8.3966
-8.22232
-8.03621
-7.83988
-7.63518
-7.42451
-7.21021
-6.99376
-6.77601
-6.55749
-6.33856
-6.11942
-5.90024
-5.68119
-5.46238
-5.24386
-5.02568
-4.80788
-4.59052
-4.37372
-4.15765
-3.94254
-3.72875
-3.51667
-3.30677
-3.09972
-2.8963
-2.69729
-2.50348
-2.31568
-2.13471
-1.96131
-1.79615
-1.63979
-1.49269
-1.35511
-1.22718
-1.10886
-0.999958
-0.900136
-0.808935
-0.725807
-0.650119
-0.581294
-0.518778
-0.461937
-0.410172
-0.362915
-0.319642
-0.279897
-0.243286
-0.209463
-0.178126
-0.148996
-0.121847
-0.0965033
-0.0727834
-0.0505286
-0.0296303
-0.010012
0.00836838
0.0255256
0.04152
0.0564464
0.0704042
0.0835063
0.0958314
0.107402
0.118257
0.128474
0.138151
0.147324
0.156053
0.164369
0.172194
-7.97678
-7.97741
-7.96475
-7.93656
-7.88278
-7.8029
-7.70227
-7.58498
-7.45216
-7.30462
-7.14487
-6.97595
-6.79903
-6.61466
-6.42384
-6.22776
-6.02742
-5.82375
-5.61763
-5.40959
-5.19999
-4.98915
-4.7774
-4.56503
-4.35235
-4.13968
-3.92743
-3.71605
-3.50604
-3.29797
-3.09253
-2.89049
-2.69265
-2.49982
-2.31287
-2.13261
-1.9598
-1.79512
-1.63915
-1.49235
-1.35501
-1.22725
-1.10904
-1.0002
-0.900406
-0.809201
-0.726045
-0.650312
-0.581436
-0.518866
-0.461972
-0.410159
-0.362858
-0.319547
-0.279771
-0.243135
-0.209294
-0.177944
-0.148804
-0.121649
-0.0963042
-0.0725853
-0.0503335
-0.0294401
-0.00982805
0.00854531
0.0256949
0.0416815
0.0566002
0.0705502
0.0836446
0.0959619
0.107524
0.118372
0.128582
0.138251
0.147417
0.156139
0.164448
0.172268
-6.98034
-7.01758
-7.04771
-7.06881
-7.07157
-7.05356
-7.01844
-6.96756
-6.89838
-6.81074
-6.70681
-6.58872
-6.45815
-6.31628
-6.16442
-6.00363
-5.83462
-5.65859
-5.47698
-5.29037
-5.09919
-4.90406
-4.70565
-4.5046
-4.30148
-4.09689
-3.89152
-3.68603
-3.48106
-3.27731
-3.07552
-2.87651
-2.68123
-2.49062
-2.30557
-2.12691
-1.95542
-1.79181
-1.63674
-1.49065
-1.35387
-1.22654
-1.10864
-1.00003
-0.900371
-0.809249
-0.726135
-0.650436
-0.58157
-0.518965
-0.462018
-0.410154
-0.362805
-0.31945
-0.279637
-0.242971
-0.209105
-0.177736
-0.148582
-0.121417
-0.0960687
-0.0723492
-0.0501
-0.029212
-0.00960746
0.00875712
0.0258972
0.0418746
0.0567844
0.0707259
0.0838118
0.0961202
0.107674
0.118512
0.128713
0.138374
0.147531
0.156244
0.164546
0.172358
-6.11119
-6.17786
-6.22865
-6.26485
-6.28739
-6.29647
-6.29377
-6.28009
-6.25287
-6.21087
-6.15558
-6.08712
-6.00407
-5.90664
-5.79646
-5.67476
-5.54241
-5.40027
-5.24925
-5.09038
-4.92446
-4.75221
-4.57437
-4.39165
-4.20468
-4.0142
-3.82124
-3.6267
-3.43129
-3.23581
-3.04114
-2.84825
-2.6582
-2.47203
-2.29069
-2.11511
-1.9462
-1.78472
-1.6314
-1.48673
-1.35106
-1.22457
-1.10731
-0.999149
-0.899813
-0.808905
-0.725931
-0.650345
-0.581546
-0.518936
-0.461959
-0.410062
-0.362677
-0.319287
-0.279442
-0.242749
-0.208862
-0.177475
-0.148307
-0.121134
-0.095783
-0.0720645
-0.0498199
-0.0289406
-0.009347
0.00900544
0.0261332
0.0420994
0.0569993
0.0709315
0.0840086
0.0963054
0.107845
0.118673
0.128865
0.138516
0.147664
0.156369
0.164661
0.172463
-5.28748
-5.3715
-5.44889
-5.51728
-5.57299
-5.61378
-5.63692
-5.64257
-5.63497
-5.61656
-5.58785