/*--------------------------------*- C++ -*----------------------------------*\
  =========                 |
  \\      /  F ield         | OpenFOAM: The Open Source CFD Toolbox
   \\    /   O peration     | Website:  https://openfoam.org
    \\  /    A nd           | Version:  13
     \\/     M anipulation  |
\*---------------------------------------------------------------------------*/
FoamFile
{
    format      ascii;
    class       surfaceScalarField;
    location    "286";
    object      phi;
}
// * * * * * * * * * * * * * * * * * * * * * * * * * * * * * * * * * * * * * //

dimensions      [0 3 -1 0 0 0 0];

internalField   nonuniform List<scalar> 
53213
(
0.000404895
-8.73842e-06
0.000412459
-7.56409e-06
0.000418992
-6.53306e-06
0.00042462
-5.62776e-06
0.000429449
-4.82886e-06
0.000433578
-4.12914e-06
-3.49491e-06
0.000437073
0.00040476
-1.73416e-05
0.000412201
-1.50051e-05
0.000418626
-1.29585e-05
0.000424159
-1.11608e-05
0.000428904
-9.57343e-06
0.000432959
-8.18402e-06
-6.92265e-06
0.000436386
0.000404485
-2.56704e-05
0.000411684
-2.22033e-05
0.000417893
-1.91683e-05
0.000423235
-1.65029e-05
0.000427811
-1.41487e-05
0.000431716
-1.20891e-05
-1.02171e-05
0.00043501
0.000404075
-3.35884e-05
0.000410908
-2.90371e-05
0.000416795
-2.50551e-05
0.000421851
-2.15587e-05
0.000426172
-1.84703e-05
0.000429853
-1.57697e-05
-1.33122e-05
0.000432948
0.000403528
-4.09596e-05
0.000409877
-3.5386e-05
0.000415333
-3.05119e-05
0.000420008
-2.62336e-05
0.000423992
-2.24541e-05
0.000427374
-1.91515e-05
-1.6142e-05
0.000430204
0.000402846
-4.7649e-05
0.00040859
-4.11301e-05
0.000413511
-3.54326e-05
0.000417711
-3.04333e-05
0.000421273
-2.60169e-05
0.000424283
-2.2161e-05
-1.86413e-05
0.000426782
0.00040203
-5.35225e-05
0.000407051
-4.61505e-05
0.00041133
-3.97118e-05
0.000414961
-3.40647e-05
0.00041802
-2.90759e-05
0.000420584
-2.4725e-05
-2.07451e-05
0.000422688
0.000401082
-5.84476e-05
0.000405261
-5.03295e-05
0.000408794
-4.32454e-05
0.000411765
-3.70353e-05
0.000414238
-3.15492e-05
0.000416284
-2.67711e-05
-2.23892e-05
0.000417928
0.000400002
-6.22928e-05
0.000403223
-5.35508e-05
0.000405908
-4.59301e-05
0.000408126
-3.92538e-05
0.000409933
-3.33559e-05
0.00041139
-2.82278e-05
-2.35102e-05
0.000412511
0.000398792
-6.49287e-05
0.000400941
-5.56993e-05
0.000402675
-4.76642e-05
0.000404051
-4.06299e-05
0.000405112
-3.44163e-05
0.000405908
-2.90244e-05
-2.40454e-05
0.000406443
0.000397455
-6.62276e-05
0.000398418
-5.66621e-05
0.000399102
-4.83475e-05
0.000399546
-4.10749e-05
0.000399782
-3.46517e-05
0.000399849
-2.90914e-05
-2.39331e-05
0.000399736
0.000395993
-6.60638e-05
0.000395658
-5.63277e-05
0.000395192
-4.78815e-05
0.000394619
-4.05012e-05
0.000393952
-3.39848e-05
0.000393221
-2.83601e-05
-2.31128e-05
0.0003924
0.000394407
-6.43141e-05
0.000392666
-5.45869e-05
0.000390954
-4.61695e-05
0.000389276
-3.88233e-05
0.000387631
-3.23399e-05
0.000386034
-2.67632e-05
-2.15251e-05
0.000384447
0.0003927
-6.08574e-05
0.000389446
-5.13328e-05
0.000386393
-4.31167e-05
0.000383527
-3.59569e-05
0.00038083
-2.96429e-05
0.000378301
-2.42344e-05
-1.91124e-05
0.000375888
0.000390875
-5.55757e-05
0.000386003
-4.64608e-05
0.000381517
-3.86304e-05
0.00037738
-3.182e-05
0.000373558
-2.58213e-05
0.000370032
-2.07086e-05
-1.58186e-05
0.000366738
0.000388934
-4.83536e-05
0.000382342
-3.98687e-05
0.000376332
-3.26202e-05
0.000370844
-2.63322e-05
0.000365827
-2.08043e-05
0.000361241
-1.61219e-05
-1.15902e-05
0.000357012
0.000386882
-3.90786e-05
0.00037847
-3.14574e-05
0.000370848
-2.49982e-05
0.000363932
-1.94155e-05
0.00035765
-1.45229e-05
0.00035194
-1.04114e-05
-6.37637e-06
0.000346726
0.00038472
-2.76416e-05
0.000374393
-2.11305e-05
0.000365074
-1.5679e-05
0.000356653
-1.09947e-05
0.00034904
-6.91027e-06
0.000342145
-3.51586e-06
-1.28979e-07
0.000335897
0.000382451
-1.39364e-05
0.000370115
-8.79404e-06
0.000359015
-4.57925e-06
0.000349017
-9.9712e-07
0.00034001
2.0968e-06
0.000331872
4.62228e-06
7.19567e-06
0.000324548
0.00038008
2.13997e-06
0.000365638
5.64769e-06
0.000352668
8.39162e-06
0.000341008
1.06623e-05
0.000330528
1.25772e-05
0.00032108
1.40703e-05
0.000312682
1.55938e-05
0.000396282
4.07907e-05
0.000359272
3.70104e-05
0.000325696
3.35754e-05
0.000295239
3.04578e-05
0.000267609
2.76296e-05
0.000242545
2.50643e-05
0.000219807
2.27378e-05
0.000199179
2.06283e-05
0.000180463
1.87158e-05
0.000163481
1.69821e-05
0.00014807
1.54109e-05
0.000134083
1.3987e-05
0.000121386
1.2697e-05
0.000109857
1.15285e-05
9.93867e-05
1.04704e-05
8.98743e-05
9.51242e-06
8.12297e-05
8.64465e-06
7.33694e-05
7.86026e-06
6.62184e-05
7.151e-06
5.97087e-05
6.50974e-06
5.37782e-05
5.93048e-06
4.83705e-05
5.40773e-06
4.34341e-05
4.93635e-06
3.89224e-05
4.51169e-06
3.47929e-05
4.12952e-06
3.10069e-05
3.78603e-06
2.75292e-05
3.47771e-06
2.43278e-05
3.20137e-06
2.13737e-05
2.95406e-06
1.86406e-05
2.73308e-06
1.61048e-05
2.53589e-06
1.37447e-05
2.36011e-06
1.15412e-05
2.20345e-06
9.47753e-06
2.06367e-06
7.53921e-06
1.93832e-06
5.71429e-06
1.82492e-06
3.99736e-06
1.71693e-06
2.39264e-06
1.60472e-06
9.5022e-07
1.44242e-06
9.5022e-07
0.000395661
8.15164e-05
0.000358708
7.39629e-05
0.000325185
6.70984e-05
0.000294775
6.0868e-05
0.000267189
5.5216e-05
0.000242164
5.00894e-05
0.000219461
4.54402e-05
0.000198865
4.12244e-05
0.000180179
3.74022e-05
0.000163223
3.39376e-05
0.000147837
3.07975e-05
0.000133872
2.7952e-05
0.000121195
2.5374e-05
0.000109685
2.30388e-05
9.9231e-05
2.0924e-05
8.97339e-05
1.90094e-05
8.11026e-05
1.72759e-05
7.32547e-05
1.57082e-05
6.61152e-05
1.42905e-05
5.9616e-05
1.30089e-05
5.36951e-05
1.18514e-05
4.82961e-05
1.08067e-05
4.33678e-05
9.86464e-06
3.88636e-05
9.01589e-06
3.47411e-05
8.25207e-06
3.09616e-05
7.5655e-06
2.74901e-05
6.94921e-06
2.42947e-05
6.3968e-06
2.13463e-05
5.90239e-06
1.86188e-05
5.46058e-06
1.60884e-05
5.06629e-06
1.37337e-05
4.7148e-06
1.15356e-05
4.40155e-06
9.47725e-06
4.12206e-06
7.54381e-06
3.87176e-06
5.72337e-06
3.64536e-06
4.00521e-06
3.43509e-06
2.38886e-06
3.22107e-06
9.2792e-07
2.90337e-06
1.87814e-06
0.000394412
0.000122115
0.000357575
0.0001108
0.000324157
0.000100517
0.000293841
9.11835e-05
0.000266341
8.27165e-05
0.000241393
7.50368e-05
0.000218762
6.80719e-05
0.00019823
6.17563e-05
0.000179601
5.60306e-05
0.000162699
5.08403e-05
0.00014736
4.61362e-05
0.000133438
4.18734e-05
0.000120801
3.80113e-05
0.000109327
3.4513e-05
9.89061e-05
3.13449e-05
8.94388e-05
2.84767e-05
8.08346e-05
2.58801e-05
7.30114e-05
2.35315e-05
6.58944e-05
2.14074e-05
5.94157e-05
1.94876e-05
5.35135e-05
1.77536e-05
4.81317e-05
1.61886e-05
4.32192e-05
1.47772e-05
3.87295e-05
1.35056e-05
3.46204e-05
1.23612e-05
3.08535e-05
1.13324e-05
2.73937e-05
1.0409e-05
2.42094e-05
9.58116e-06
2.12715e-05
8.84021e-06
1.85541e-05
8.17799e-06
1.60335e-05
7.58695e-06
1.36883e-05
7.05997e-06
1.14995e-05
6.59031e-06
9.45026e-06
6.17134e-06
7.5255e-06
5.79653e-06
5.7123e-06
5.45856e-06
3.99976e-06
5.14762e-06
2.38625e-06
4.83458e-06
9.25406e-07
4.36421e-06
2.80355e-06
0.00039254
0.000162523
0.000355876
0.000147464
0.000322614
0.000133779
0.00029244
0.000121357
0.000265068
0.000110089
0.000240237
9.98676e-05
0.000217711
9.0598e-05
0.000197274
8.21925e-05
0.000178733
7.4572e-05
0.000161909
6.76641e-05
0.000146642
6.14032e-05
0.000132786
5.57298e-05
0.000120207
5.05896e-05
0.000108787
4.59335e-05
9.84147e-05
4.1717e-05
8.89919e-05
3.78996e-05
8.04281e-05
3.44439e-05
7.26416e-05
3.1318e-05
6.55581e-05
2.84909e-05
5.911e-05
2.59358e-05
5.32357e-05
2.36279e-05
4.78794e-05
2.15448e-05
4.29904e-05
1.96662e-05
3.85223e-05
1.79737e-05
3.44331e-05
1.64503e-05
3.06847e-05
1.50809e-05
2.72422e-05
1.38515e-05
2.4074e-05
1.27494e-05
2.11514e-05
1.17628e-05
1.84484e-05
1.08809e-05
1.59416e-05
1.00938e-05
1.36098e-05
9.39183e-06
1.14339e-05
8.76621e-06
9.39701e-06
8.2082e-06
7.48408e-06
7.70946e-06
5.68176e-06
7.26087e-06
3.97903e-06
6.85035e-06
2.37445e-06
6.43916e-06
9.20702e-07
5.81796e-06
3.72425e-06
0.000390048
0.000202678
0.000353613
0.000183899
0.000320559
0.000166833
0.000290574
0.000151343
0.000263372
0.00013729
0.000238696
0.000124544
0.000216311
0.000112984
0.000196002
0.000102501
0.000177576
9.29979e-05
0.000160857
8.43831e-05
0.000145685
7.65752e-05
0.000131915
6.94998e-05
0.000119415
6.30894e-05
0.000108066
5.72828e-05
9.77585e-05
5.20243e-05
8.83946e-05
4.72635e-05
7.98844e-05
4.2954e-05
7.21468e-05
3.90556e-05
6.51077e-05
3.553e-05
5.87001e-05
3.23434e-05
5.28629e-05
2.94651e-05
4.75406e-05
2.68672e-05
4.26826e-05
2.45242e-05
3.82432e-05
2.24131e-05
3.41804e-05
2.0513e-05
3.04565e-05
1.88049e-05
2.70367e-05
1.72713e-05
2.38898e-05
1.58963e-05
2.09872e-05
1.46653e-05
1.83032e-05
1.3565e-05
1.58143e-05
1.25826e-05
1.34997e-05
1.17065e-05
1.13402e-05
1.09256e-05
9.31919e-06
1.02293e-05
7.42139e-06
9.60726e-06
5.63335e-06
9.04891e-06
3.944e-06
8.5397e-06
2.35238e-06
8.03079e-06
9.10924e-07
7.25941e-06
4.63517e-06
0.000386941
0.000242519
0.000350792
0.000220048
0.000317997
0.000199628
0.000288247
0.000181093
0.000261258
0.000164279
0.000236775
0.000149027
0.000214564
0.000135194
0.000194414
0.000122652
0.000176132
0.00011128
0.000159544
0.000100971
0.000144491
9.16286e-05
0.000130828
8.31622e-05
0.000118426
7.54915e-05
0.000107166
6.85433e-05
9.69389e-05
6.22509e-05
8.76483e-05
5.65542e-05
7.92049e-05
5.13974e-05
7.1528e-05
4.67325e-05
6.45444e-05
4.25136e-05
5.81873e-05
3.87004e-05
5.23963e-05
3.52561e-05
4.71162e-05
3.21473e-05
4.2297e-05
2.93434e-05
3.78932e-05
2.68169e-05
3.38633e-05
2.45429e-05
3.01698e-05
2.24984e-05
2.67783e-05
2.06627e-05
2.36578e-05
1.90168e-05
2.078e-05
1.75432e-05
1.81193e-05
1.62256e-05
1.56526e-05
1.50493e-05
1.3359e-05
1.40001e-05
1.12197e-05
1.30649e-05
9.21789e-06
1.2231e-05
7.33855e-06
1.14866e-05
5.5681e-06
1.08194e-05
3.89554e-06
1.02123e-05
2.32048e-06
9.60586e-06
8.96031e-07
8.68385e-06
5.5312e-06
0.000383224
0.000281983
0.000347417
0.000255855
0.000314932
0.000232113
0.000285462
0.000210563
0.000258728
0.000191012
0.000234476
0.000173279
0.000212474
0.000157196
0.000192514
0.000142612
0.000174405
0.000129389
0.000157972
0.000117404
0.000143061
0.00010654
0.000129527
9.66958e-05
0.000117242
8.77767e-05
0.000106088
7.96976e-05
9.59576e-05
7.23811e-05
8.67546e-05
6.57571e-05
7.8391e-05
5.9761e-05
7.07868e-05
5.43368e-05
6.38693e-05
4.94311e-05
5.75727e-05
4.49971e-05
5.18368e-05
4.0992e-05
4.66073e-05
3.73768e-05
4.18344e-05
3.41162e-05
3.74732e-05
3.11782e-05
3.34826e-05
2.85335e-05
2.98254e-05
2.61556e-05
2.64677e-05
2.40205e-05
2.33786e-05
2.21059e-05
2.05303e-05
2.03915e-05
1.78974e-05
1.88586e-05
1.54569e-05
1.74897e-05
1.31883e-05
1.62688e-05
1.10728e-05
1.51804e-05
9.09383e-06
1.421e-05
7.23631e-06
1.33441e-05
5.48679e-06
1.25689e-05
3.83437e-06
1.18647e-05
2.27935e-06
1.11609e-05
8.76175e-07
1.0087e-05
6.40738e-06
0.000378903
0.000321008
0.000343492
0.000291266
0.000311367
0.000264239
0.000282224
0.000239706
0.000255786
0.00021745
0.000231802
0.000197263
0.000210044
0.000178954
0.000190305
0.000162351
0.000172395
0.000147299
0.000156145
0.000133654
0.000141398
0.000121287
0.000128014
0.00011008
0.000115865
9.99261e-05
0.000104834
9.07285e-05
9.4816e-05
8.23991e-05
8.5715e-05
7.48581e-05
7.74441e-05
6.80319e-05
6.99243e-05
6.18566e-05
6.30838e-05
5.62716e-05
5.68573e-05
5.12235e-05
5.11856e-05
4.66637e-05
4.60148e-05
4.25477e-05
4.12957e-05
3.88353e-05
3.6984e-05
3.54899e-05
3.3039e-05
3.24784e-05
2.9424e-05
2.97707e-05
2.61054e-05
2.73391e-05
2.30529e-05
2.51584e-05
2.02388e-05
2.32056e-05
1.7638e-05
2.14593e-05
1.5228e-05
1.98998e-05
1.29882e-05
1.85086e-05
1.09002e-05
1.72684e-05
8.94753e-06
1.61627e-05
7.11521e-06
1.51765e-05
5.38994e-06
1.42941e-05
3.761e-06
1.34936e-05
2.22947e-06
1.26924e-05
8.51588e-07
1.14649e-05
7.25897e-06
0.000373983
0.000359536
0.000339025
0.000326224
0.00030731
0.000295954
0.000278538
0.000268478
0.000252437
0.000243551
0.000228759
0.000220941
0.000207278
0.000200435
0.00018779
0.00018184
0.000170108
0.00016498
0.000154065
0.000149698
0.000139506
0.000135846
0.000126292
0.000123294
0.000114297
0.000111921
0.000103407
0.000101619
9.35162e-05
9.22895e-05
8.45312e-05
8.38431e-05
7.63658e-05
7.61973e-05
6.8942e-05
6.92804e-05
6.2189e-05
6.30246e-05
5.60425e-05
5.73701e-05
5.04437e-05
5.22624e-05
4.53396e-05
4.76518e-05
4.06818e-05
4.3493e-05
3.64264e-05
3.97454e-05
3.25333e-05
3.63715e-05
2.89662e-05
3.33377e-05
2.56922e-05
3.06131e-05
2.26811e-05
2.81694e-05
1.99058e-05
2.59809e-05
1.73416e-05
2.40235e-05
1.49661e-05
2.22753e-05
1.2759e-05
2.07156e-05
1.07022e-05
1.93251e-05
8.77936e-06
1.80856e-05
6.97564e-06
1.69802e-05
5.27791e-06
1.59919e-05
3.67576e-06
1.50958e-05
2.17122e-06
1.41969e-05
8.22554e-07
1.28136e-05
8.08152e-06
0.000368475
0.000397504
0.000334023
0.000360676
0.000302766
0.00032721
0.000274411
0.000296834
0.000248687
0.000269275
0.00022535
0.000244277
0.00020418
0.000221605
0.000184973
0.000201047
0.000167546
0.000182407
0.000151734
0.00016551
0.000137385
0.000150195
0.000124362
0.000136317
0.000112541
0.000123742
0.000101808
0.000112352
9.20601e-05
0.000102037
8.3205e-05
9.26982e-05
7.51578e-05
8.42445e-05
6.78416e-05
7.65967e-05
6.11866e-05
6.96796e-05
5.51294e-05
6.34273e-05
4.96123e-05
5.77795e-05
4.4583e-05
5.26811e-05
3.99937e-05
4.80823e-05
3.58013e-05
4.39378e-05
3.19662e-05
4.02066e-05
2.84528e-05
3.68511e-05
2.52286e-05
3.38374e-05
2.22639e-05
3.11341e-05
1.95321e-05
2.87128e-05
1.70086e-05
2.6547e-05
1.46716e-05
2.46123e-05
1.25011e-05
2.28861e-05
1.04792e-05
2.13471e-05
8.58959e-06
1.99752e-05
6.81784e-06
1.87519e-05
5.15091e-06
1.76588e-05
3.57883e-06
1.66679e-05
2.1049e-06
1.56709e-05
7.89306e-07
1.41292e-05
8.87083e-06
0.000362385
0.000434856
0.000328492
0.000394568
0.000297743
0.000357959
0.000269847
0.00032473
0.00024454
0.000294582
0.000221582
0.000267236
0.000200754
0.000242433
0.000181858
0.000219942
0.000164714
0.000199551
0.000149158
0.000181066
0.000135041
0.000164312
0.000122229
0.000149129
0.000110599
0.000135372
0.00010004
0.000122912
9.04501e-05
0.000111627
8.17386e-05
0.00010141
7.3822e-05
9.21611e-05
6.66246e-05
8.37941e-05
6.0078e-05
7.62263e-05
5.41196e-05
6.93856e-05
4.86928e-05
6.32062e-05
4.37461e-05
5.76278e-05
3.92325e-05
5.25958e-05
3.51096e-05
4.80607e-05
3.13387e-05
4.39775e-05
2.78846e-05
4.03052e-05
2.47153e-05
3.70066e-05
2.18019e-05
3.40475e-05
1.91179e-05
3.13967e-05
1.66395e-05
2.90254e-05
1.4345e-05
2.69068e-05
1.22148e-05
2.50163e-05
1.02313e-05
2.33306e-05
8.37847e-06
2.1828e-05
6.64201e-06
2.04884e-05
5.009e-06
1.92918e-05
3.47026e-06
1.82066e-05
2.03075e-06
1.71104e-05
7.52021e-07
1.54079e-05
9.62285e-06
0.000355723
0.000471534
0.000322442
0.000427849
0.000292248
0.000388153
0.000264855
0.000352122
0.000240004
0.000319433
0.00021746
0.00028978
0.000197007
0.000262886
0.000178451
0.000238498
0.000161615
0.000216387
0.000146339
0.000196342
0.000132477
0.000178174
0.000119895
0.00016171
0.000108475
0.000146793
9.81054e-05
0.000133281
8.86887e-05
0.000121043
8.01342e-05
0.000109964
7.23605e-05
9.99348e-05
6.52931e-05
9.08614e-05
5.88649e-05
8.26545e-05
5.30146e-05
7.5236e-05
4.76865e-05
6.85343e-05
4.28301e-05
6.24843e-05
3.83993e-05
5.70266e-05
3.43525e-05
5.21076e-05
3.06516e-05
4.76784e-05
2.72623e-05
4.36946e-05
2.41531e-05
4.01158e-05
2.12956e-05
3.6905e-05
1.86639e-05
3.40284e-05
1.62347e-05
3.14546e-05
1.39866e-05
2.91549e-05
1.19005e-05
2.71024e-05
9.9589e-06
2.52722e-05
8.1462e-06
2.36407e-05
6.44831e-06
2.21863e-05
4.85226e-06
2.08879e-05
3.35009e-06
1.97088e-05
1.94853e-06
1.85119e-05
7.10673e-07
1.66458e-05
1.03335e-05
0.000348501
0.00050748
0.000315883
0.000460467
0.00028629
0.000417746
0.000259443
0.00037897
0.000235086
0.00034379
0.00021299
0.000311877
0.000192943
0.000282932
0.000174756
0.000256685
0.000158255
0.000232888
0.000143283
0.000211314
0.000129696
0.000191761
0.000117364
0.000174041
0.000106171
0.000157987
9.60079e-05
0.000143444
8.67785e-05
0.000130273
7.83943e-05
0.000118348
7.07755e-05
0.000107554
6.3849e-05
9.77878e-05
5.75493e-05
8.89543e-05
5.18161e-05
8.09691e-05
4.6595e-05
7.37554e-05
4.18364e-05
6.72429e-05
3.74953e-05
6.13677e-05
3.35309e-05
5.6072e-05
2.9906e-05
5.13033e-05
2.65868e-05
4.70138e-05
2.35427e-05
4.31599e-05
2.07457e-05
3.9702e-05
1.81707e-05
3.66034e-05
1.57947e-05
3.38306e-05
1.35968e-05
3.13527e-05
1.15584e-05
2.91409e-05
9.6622e-06
2.71683e-05
7.89298e-06
2.541e-05
6.2369e-06
2.38423e-05
4.68113e-06
2.24436e-05
3.21881e-06
2.11711e-05
1.85772e-06
1.9873e-05
6.64882e-07
1.78386e-05
1.09984e-05
0.000340729
0.000542639
0.000308825
0.000492371
0.000279879
0.000446692
0.000253618
0.000405231
0.000229793
0.000367615
0.000208179
0.000333491
0.00018857
0.000302541
0.00017078
0.000274475
0.000154639
0.000249028
0.000139993
0.00022596
0.000126703
0.000205052
0.000114641
0.000186104
0.000103691
0.000168936
9.37503e-05
0.000153385
8.47225e-05
0.000139301
7.65216e-05
0.000126549
6.90694e-05
0.000115006
6.22947e-05
0.000104563
5.61331e-05
9.51159e-05
5.05259e-05
8.65763e-05
4.54199e-05
7.88614e-05
4.07666e-05
7.18962e-05
3.6522e-05
6.56122e-05
3.26462e-05
5.99478e-05
2.91029e-05
5.48466e-05
2.58591e-05
5.02576e-05
2.28849e-05
4.61342e-05
2.0153e-05
4.24338e-05
1.76389e-05
3.91175e-05
1.532e-05
3.61495e-05
1.31761e-05
3.34966e-05
1.11888e-05
3.11282e-05
9.34145e-06
2.90157e-05
7.61898e-06
2.71324e-05
6.0079e-06
2.54534e-05
4.49567e-06
2.39559e-05
3.07642e-06
2.25903e-05
1.75845e-06
2.1191e-05
6.14679e-07
1.89824e-05
1.16131e-05
0.00033242
0.000576957
0.000301278
0.000523513
0.000273024
0.000474946
0.00024739
0.000430865
0.000224133
0.000390871
0.000203035
0.000354589
0.000183894
0.000321682
0.000166528
0.000291841
0.000150772
0.000264784
0.000136476
0.000240257
0.000123502
0.000218025
0.000111728
0.000197878
0.00010104
0.000179624
9.13362e-05
0.000163088
8.25239e-05
0.000148113
7.4519e-05
0.000134554
6.72449e-05
0.00012228
6.06324e-05
0.000111175
5.46185e-05
0.00010113
4.9146e-05
9.20487e-05
4.4163e-05
8.38445e-05
3.96222e-05
7.6437e-05
3.54807e-05
6.97537e-05
3.16996e-05
6.37289e-05
2.82435e-05
5.83027e-05
2.50802e-05
5.34208e-05
2.21807e-05
4.90337e-05
1.95183e-05
4.50962e-05
1.70691e-05
4.15667e-05
1.48112e-05
3.84074e-05
1.27249e-05
3.5583e-05
1.07922e-05
3.30609e-05
8.99691e-06
3.0811e-05
7.32434e-06
2.8805e-05
5.76134e-06
2.70164e-05
4.29576e-06
2.54214e-05
2.92261e-06
2.39635e-05
1.65085e-06
2.24628e-05
5.60141e-07
2.00731e-05
1.21732e-05
0.000323587
0.000610383
0.000293255
0.000553845
0.000265736
0.000502465
0.000240768
0.000455834
0.000218116
0.000413523
0.000197566
0.000375139
0.000178922
0.000340326
0.000162008
0.000308755
0.000146661
0.000280131
0.000132736
0.000254182
0.0001201
0.000230661
0.000108631
0.000209347
9.82207e-05
0.000190034
8.87692e-05
0.00017254
8.01861e-05
0.000156696
7.23895e-05
0.000142351
6.53049e-05
0.000129365
5.88647e-05
0.000117615
5.30078e-05
0.000106987
4.76785e-05
9.7378e-05
4.28262e-05
8.86967e-05
3.8405e-05
8.08582e-05
3.4373e-05
7.37857e-05
3.06925e-05
6.74094e-05
2.7329e-05
6.16662e-05
2.42512e-05
5.64986e-05
2.14309e-05
5.1854e-05
1.88423e-05
4.76848e-05
1.6462e-05
4.3947e-05
1.42688e-05
4.06006e-05
1.22436e-05
3.76082e-05
1.03688e-05
3.49357e-05
8.62879e-06
3.2551e-05
7.0092e-06
3.04246e-05
5.49724e-06
2.85284e-05
4.08124e-06
2.68374e-05
2.75711e-06
2.52876e-05
1.53482e-06
2.36851e-05
5.01267e-07
2.11066e-05
1.26745e-05
0.000314243
0.000642866
0.000284769
0.000583319
0.000258027
0.000529207
0.000233763
0.000480097
0.00021175
0.000435536
0.00019178
0.00039511
0.000173662
0.000358443
0.000157225
0.000325193
0.000142311
0.000295044
0.000128779
0.000267714
0.000116499
0.000242941
0.000105354
0.000220492
9.5238e-05
0.000200151
8.60533e-05
0.000181725
7.77127e-05
0.000165037
7.01364e-05
0.000149927
6.32522e-05
0.000136249
5.69943e-05
0.000123873
5.13035e-05
0.000112677
4.61256e-05
0.000102556
4.14116e-05
9.34108e-05
3.71167e-05
8.51531e-05
3.32006e-05
7.77018e-05
2.96263e-05
7.09837e-05
2.63607e-05
6.49319e-05
2.33733e-05
5.9486e-05
2.06367e-05
5.45906e-05
1.81259e-05
5.01956e-05
1.58184e-05
4.62546e-05
1.36935e-05
4.27254e-05
1.17327e-05
3.9569e-05
9.91905e-06
3.67493e-05
8.23734e-06
3.42327e-05
6.67366e-06
3.19883e-05
5.21556e-06
2.99865e-05
3.85194e-06
2.82011e-05
2.5797e-06
2.65599e-05
1.41012e-06
2.48546e-05
4.37989e-07
2.20788e-05
1.31125e-05
0.000304402
0.000674361
0.000275833
0.000611888
0.000249909
0.000555131
0.000226386
0.00050362
0.000205046
0.000456876
0.000185686
0.00041447
0.000168122
0.000376007
0.000152188
0.000341127
0.00013773
0.000309502
0.000124612
0.000280832
0.000112707
0.000254846
0.000101903
0.000231296
9.20964e-05
0.000209958
8.31928e-05
0.000190628
7.51075e-05
0.000173122
6.77632e-05
0.000157271
6.109e-05
0.000142922
5.50241e-05
0.000129939
4.95081e-05
0.000118193
4.44897e-05
0.000107574
3.99212e-05
9.79793e-05
3.57594e-05
8.93149e-05
3.19651e-05
8.14962e-05
2.85027e-05
7.44461e-05
2.534e-05
6.80946e-05
2.24476e-05
6.23783e-05
1.9799e-05
5.72392e-05
1.73701e-05
5.26245e-05
1.5139e-05
4.84857e-05
1.30859e-05
4.47786e-05
1.11927e-05
4.14622e-05
9.44329e-06
3.84987e-05
7.8228e-06
3.58532e-05
6.31783e-06
3.34932e-05
4.9163e-06
3.1388e-05
3.60771e-06
2.95097e-05
2.39013e-06
2.77774e-05
1.27648e-06
2.59683e-05
3.70159e-07
2.29851e-05
1.34826e-05
0.000294081
0.000704827
0.000266461
0.000639509
0.000241393
0.000580198
0.000218648
0.000526365
0.000198014
0.00047751
0.000179294
0.000433189
0.000162311
0.00039299
0.000146904
0.000356535
0.000132924
0.000323481
0.00012024
0.000293516
0.00010873
0.000266356
9.82832e-05
0.000241742
8.88008e-05
0.00021944
8.0192e-05
0.000199237
7.23744e-05
0.00018094
6.52736e-05
0.000164372
5.88216e-05
0.000149374
5.29571e-05
0.000135804
4.76245e-05
0.000123526
4.27732e-05
0.000112425
3.83573e-05
0.000102395
3.4335e-05
9.33372e-05
3.06684e-05
8.51627e-05
2.73232e-05
7.77912e-05
2.42683e-05
7.11495e-05
2.14755e-05
6.51712e-05
1.8919e-05
5.97957e-05
1.65758e-05
5.49677e-05
1.44247e-05
5.06368e-05
1.24466e-05
4.67566e-05
1.06242e-05
4.32845e-05
8.94191e-06
4.01811e-05
7.38541e-06
3.74097e-05
5.94181e-06
3.49368e-05
4.59942e-06
3.27304e-05
3.34837e-06
3.07607e-05
2.18808e-06
2.89377e-05
1.13353e-06
2.70228e-05
2.97585e-07
2.3821e-05
1.37802e-05
0.000283291
0.000734218
0.000256672
0.000666128
0.000232495
0.000604375
0.000210561
0.000548299
0.000190664
0.000497407
0.000172614
0.00045124
0.000156238
0.000409366
0.000141381
0.000371392
0.000127902
0.000336961
0.000115671
0.000305747
0.000104572
0.000277455
9.44995e-05
0.000251815
8.53563e-05
0.000228583
7.70555e-05
0.000207538
6.95178e-05
0.000188477
6.26713e-05
0.000171219
5.64506e-05
0.000155595
5.07964e-05
0.000141458
4.56554e-05
0.000128667
4.09788e-05
0.000117102
3.67223e-05
0.000106652
3.28456e-05
9.72139e-05
2.93124e-05
8.8696e-05
2.60896e-05
8.1014e-05
2.31473e-05
7.40919e-05
2.04583e-05
6.78602e-05
1.7998e-05
6.2256e-05
1.5744e-05
5.72216e-05
1.36763e-05
5.27046e-05
1.17764e-05
4.86565e-05
1.00278e-05
4.50332e-05
8.41532e-06
4.17935e-05
6.92543e-06
3.88996e-05
5.54571e-06
3.63165e-05
4.26486e-06
3.40113e-05
3.07372e-06
3.19519e-05
1.97324e-06
3.00382e-05
9.80904e-07
2.80152e-05
2.19987e-07
2.45819e-05
1.40002e-05
0.00027207
0.000762483
-0.000300335
0.000246465
0.000691732
0.000223225
0.000627615
0.000202139
0.000569386
0.000183009
0.000516537
0.000165655
0.000468594
0.000149912
0.000425109
0.000135629
0.000385675
0.00012267
0.00034992
0.000110912
0.000317505
0.000100242
0.000288125
9.0558e-05
0.000261499
8.17682e-05
0.000237373
7.37883e-05
0.000215518
6.6542e-05
0.000195724
5.99604e-05
0.0001778
5.39805e-05
0.000161575
4.85454e-05
0.000146893
4.36039e-05
0.000133608
3.91092e-05
0.000121597
3.50186e-05
0.000110742
3.12935e-05
0.000100939
2.78991e-05
9.20904e-05
2.48036e-05
8.41095e-05
2.19784e-05
7.69171e-05
1.93974e-05
7.04412e-05
1.7037e-05
6.46163e-05
1.48759e-05
5.93827e-05
1.28948e-05
5.46857e-05
1.1076e-05
5.04752e-05
9.40391e-06
4.67053e-05
7.86394e-06
4.33335e-05
6.44314e-06
4.03204e-05
5.12964e-06
3.76301e-05
3.91259e-06
3.52283e-05
2.78356e-06
3.30809e-05
1.74526e-06
3.10765e-05
8.18226e-07
2.89422e-05
1.36949e-07
2.52632e-05
1.41372e-05
0.000260399
0.000789565
-0.000287481
0.00023586
0.000716271
0.000213596
0.000649879
0.000193392
0.000589591
0.000175059
0.000534869
0.000158429
0.000485224
0.000143342
0.000440196
0.000129655
0.000399362
0.000117237
0.000362338
0.000105969
0.000328773
9.57444e-05
0.00029835
8.64649e-05
0.000270778
7.8042e-05
0.000245796
7.03952e-05
0.000223165
6.34516e-05
0.000202667
5.7145e-05
0.000184107
5.14152e-05
0.000167304
4.62076e-05
0.000152101
4.14732e-05
0.000138343
3.71672e-05
0.000125903
3.32488e-05
0.000114661
2.96811e-05
0.000104507
2.64306e-05
9.53408e-05
2.34672e-05
8.70729e-05
2.07634e-05
7.96209e-05
1.82943e-05
7.29103e-05
1.60374e-05
6.68732e-05
1.39725e-05
6.14477e-05
1.2081e-05
5.65772e-05
1.03463e-05
5.221e-05
8.75326e-06
4.82983e-05
7.28824e-06
4.47985e-05
5.93882e-06
4.16698e-05
4.69371e-06
3.88752e-05
3.54254e-06
3.63795e-05
2.4777e-06
3.41457e-05
1.50385e-06
3.20504e-05
6.45262e-07
2.98008e-05
4.76556e-08
2.58608e-05
1.41848e-05
0.000248323
0.000815433
-0.000274191
0.00022488
0.000739715
0.000203624
0.000671134
0.000184333
0.000608881
0.000166828
0.000552374
0.000150947
0.000501106
0.000136539
0.000454603
0.000123469
0.000412432
0.000111611
0.000374196
0.000100851
0.000339533
9.10875e-05
0.000308113
8.22264e-05
0.000279639
7.41834e-05
0.000253839
6.68816e-05
0.000230466
6.02513e-05
0.000209297
5.42295e-05
0.000190129
4.87585e-05
0.000172775
4.37864e-05
0.000157073
3.92664e-05
0.000142863
3.51557e-05
0.000130014
3.14155e-05
0.000118401
2.80106e-05
0.000107912
2.49091e-05
9.84423e-05
2.20823e-05
8.98998e-05
1.95039e-05
8.21993e-05
1.71505e-05
7.52637e-05
1.50006e-05
6.90231e-05
1.3035e-05
6.34133e-05
1.1236e-05
5.83762e-05
9.58793e-06
5.3858e-05
8.07647e-06
4.98098e-05
6.68867e-06
4.61863e-05
5.41276e-06
4.29457e-05
4.23806e-06
4.00499e-05
3.15469e-06
3.74628e-05
2.15598e-06
3.51444e-05
1.24878e-06
3.29576e-05
4.6147e-07
3.05881e-05
-4.8111e-08
2.63704e-05
1.41367e-05
0.000235852
0.000840046
-0.000260465
0.000213543
0.000762023
0.000193324
0.000691353
0.000174978
0.000627228
0.000158327
0.000569025
0.000143219
0.000516213
0.000129514
0.000468308
0.000117081
0.000424865
0.000105801
0.000385476
9.55658e-05
0.000349768
8.62781e-05
0.000317401
7.78492e-05
0.000288068
7.01985e-05
0.00026149
6.32529e-05
0.000237412
5.69462e-05
0.000215604
5.12183e-05
0.000195856
4.60146e-05
0.000177979
4.12856e-05
0.000161802
3.6987e-05
0.000147162
3.30779e-05
0.000133923
2.95216e-05
0.000121957
2.62847e-05
0.000111149
2.33369e-05
0.00010139
2.06509e-05
9.25858e-05
1.82019e-05
8.46482e-05
1.59677e-05
7.74979e-05
1.3928e-05
7.10628e-05
1.20646e-05
6.52768e-05
1.03608e-05
6.00799e-05
8.80185e-06
5.5417e-05
7.37423e-06
5.12374e-05
6.06573e-06
4.74948e-05
4.86529e-06
4.41462e-05
3.76283e-06
4.11523e-05
2.749e-06
3.84767e-05
1.81822e-06
3.60752e-05
9.79948e-07
3.37958e-05
2.65855e-07
3.13022e-05
-1.48217e-07
2.67845e-05
1.39885e-05
0.000223007
0.000863362
-0.000246323
0.000201868
0.000783162
0.000182715
0.000710506
0.000165339
0.000644604
0.000149569
0.000584796
0.000135259
0.000530523
0.000122278
0.00048129
0.0001105
0.000436643
9.98156e-05
0.000396161
9.0121e-05
0.000359462
8.13237e-05
0.000326198
7.33399e-05
0.000296052
6.60933e-05
0.000268737
5.95146e-05
0.000243991
5.35412e-05
0.000221578
4.81161e-05
0.000201282
4.31876e-05
0.000182908
3.87092e-05
0.00016628
3.46384e-05
0.000151232
3.09369e-05
0.000137624
2.75699e-05
0.000125324
2.45058e-05
0.000114213
2.17162e-05
0.00010418
1.91751e-05
9.51269e-05
1.68592e-05
8.6964e-05
1.47476e-05
7.96096e-05
1.28211e-05
7.29893e-05
1.10626e-05
6.70353e-05
9.45651e-06
6.16859e-05
7.98894e-06
5.68845e-05
6.64724e-06
5.25791e-05
5.41996e-06
4.87221e-05
4.29674e-06
4.52694e-05
3.26816e-06
4.21809e-05
2.32546e-06
3.94194e-05
1.46431e-06
3.69364e-05
6.97693e-07
3.45625e-05
5.68558e-08
3.1943e-05
-2.49422e-07
2.70907e-05
1.37391e-05
0.000209809
0.000885343
-0.000231789
0.000189874
0.000803097
0.000171814
0.000728566
0.000155434
0.000660983
0.000140568
0.000599661
0.000127079
0.000544013
0.00011484
0.000493529
0.000103737
0.000447745
9.36645e-05
0.000406234
8.45252e-05
0.000368602
7.6232e-05
0.000334491
6.87056e-05
0.000303578
6.18742e-05
0.000275568
5.56726e-05
0.000250192
5.00416e-05
0.000227209
4.49276e-05
0.000206396
4.02819e-05
0.000187553
3.60609e-05
0.000170501
3.22242e-05
0.000155069
2.8736e-05
0.000141112
2.55634e-05
0.000128497
2.26768e-05
0.000117099
2.00495e-05
0.000106807
1.76571e-05
9.75193e-05
1.54777e-05
8.91433e-05
1.34917e-05
8.15956e-05
1.16813e-05
7.47997e-05
1.00303e-05
6.86864e-05
8.52423e-06
6.3192e-05
7.15014e-06
5.82586e-05
5.89623e-06
5.3833e-05
4.75189e-06
4.98664e-05
3.70747e-06
4.63138e-05
2.75422e-06
4.31341e-05
1.88406e-06
4.02895e-05
1.09417e-06
3.77263e-05
4.01285e-07
3.52554e-05
-1.65682e-07
3.251e-05
-3.49596e-07
2.72747e-05
1.33895e-05
0.000196275
0.000905953
-0.000216886
0.000177577
0.000821795
0.000160637
0.000745506
0.000145277
0.000676343
0.000131339
0.000613599
0.00011869
0.000556661
0.000107214
0.000505005
9.68024e-05
0.000458157
8.7357e-05
0.000415679
7.87872e-05
0.000377172
7.10107e-05
0.000342268
6.39534e-05
0.000310636
5.75478e-05
0.000281974
5.17328e-05
0.000256007
4.64528e-05
0.000232489
4.16578e-05
0.000211191
3.7302e-05
0.000191909
3.3345e-05
0.000174458
2.97483e-05
0.000158666
2.64784e-05
0.000144382
2.35051e-05
0.00013147
2.08003e-05
0.000119804
1.83392e-05
0.000109268
1.60991e-05
9.97594e-05
1.40595e-05
9.11829e-05
1.2202e-05
8.3453e-05
1.05102e-05
7.64916e-05
8.96905e-06
7.02275e-05
7.56514e-06
6.45959e-05
6.28641e-06
5.95373e-05
5.122e-06
5.49974e-05
4.06211e-06
5.09263e-05
3.09785e-06
4.72781e-05
2.22116e-06
4.40108e-05
1.42474e-06
4.10859e-05
7.07761e-07
3.84432e-05
8.86048e-08
3.58745e-05
-3.98889e-07
3.29975e-05
-4.48252e-07
2.7324e-05
1.29412e-05
0.000182427
0.000925162
-0.000201636
0.000164995
0.000839227
0.000149202
0.0007613
0.000134884
0.000690661
0.000121894
0.000626589
0.000110106
0.00056845
9.94099e-05
0.000515701
8.97062e-05
0.00046786
8.09029e-05
0.000424483
7.29157e-05
0.000385159
6.5668e-05
0.000349515
5.90906e-05
0.000317213
5.31207e-05
0.000287944
4.77012e-05
0.000261427
4.27804e-05
0.000237409
3.83116e-05
0.000215659
3.42524e-05
0.000195968