/*--------------------------------*- C++ -*----------------------------------*\
  =========                 |
  \\      /  F ield         | OpenFOAM: The Open Source CFD Toolbox
   \\    /   O peration     | Website:  https://openfoam.org
    \\  /    A nd           | Version:  13
     \\/     M anipulation  |
\*---------------------------------------------------------------------------*/
FoamFile
{
    format      ascii;
    class       volScalarField;
    location    "286";
    object      ReThetat;
}
// * * * * * * * * * * * * * * * * * * * * * * * * * * * * * * * * * * * * * //

dimensions      [];

internalField   nonuniform List<scalar> 
26820
(
78.7771
79.1077
79.5697
80.1032
80.6621
81.2164
81.7474
78.7773
79.1089
79.5722
80.1072
80.6677
81.2234
81.7563
78.7777
79.1111
79.577
80.115
80.6787
81.2374
81.7738
78.7783
79.1145
79.5843
80.1268
80.6953
81.2583
81.8002
78.7791
79.119
79.5941
80.1426
80.7174
81.2863
81.8354
78.7801
79.1247
79.6063
80.1623
80.7451
81.3213
81.8795
78.7813
79.1315
79.621
80.1861
80.7784
81.3635
81.9327
78.7827
79.1394
79.6383
80.214
80.8175
81.4129
81.9948
78.7843
79.1486
79.6581
80.2459
80.8623
81.4696
82.0662
78.7861
79.1589
79.6804
80.2821
80.9129
81.5336
82.1467
78.7882
79.1705
79.7054
80.3224
80.9694
81.6051
82.2367
78.7904
79.1832
79.733
80.367
81.0319
81.6841
82.336
78.7929
79.1973
79.7633
80.4159
81.1004
81.7706
82.4449
78.7956
79.2125
79.7963
80.4692
81.1749
81.8649
82.5634
78.7985
79.2291
79.832
80.5269
81.2556
81.9669
82.6917
78.8017
79.2469
79.8706
80.5891
81.3426
82.0767
82.8298
78.8051
79.266
79.9119
80.6557
81.4357
82.1946
82.9778
78.8087
79.2865
79.956
80.7271
81.5352
82.3209
83.1359
78.8125
79.3082
80.003
80.8032
81.6411
82.4567
83.3028
78.8165
79.331
80.0528
80.8843
81.7539
82.604
83.47
82.2731
82.8032
83.3019
83.7666
84.1964
84.5911
84.9515
85.2788
85.5746
85.8405
86.0782
86.2896
86.4764
86.6404
86.7829
86.9057
87.0093
87.0946
87.164
87.2195
87.2625
87.2941
87.3156
87.3278
87.332
87.3292
87.3201
87.306
87.2888
87.2738
87.2671
87.2654
87.2651
87.2648
87.2643
87.2639
87.2635
87.2632
87.263
87.2629
82.2821
82.812
83.3102
83.7745
84.2038
84.598
84.958
85.2849
85.5802
85.8457
86.083
86.2941
86.4806
86.6442
86.7865
86.909
87.0123
87.0975
87.1667
87.222
87.2647
87.2962
87.3175
87.3296
87.3337
87.3306
87.3215
87.3077
87.2935
87.2815
87.2731
87.2682
87.2657
87.2644
87.2638
87.2634
87.2631
87.263
87.2629
87.2628
82.3
82.8294
83.3269
83.7903
84.2186
84.6119
84.9709
85.2969
85.5914
85.856
86.0926
86.303
86.4888
86.6518
86.7935
86.9155
87.0183
87.103
87.1718
87.2267
87.2692
87.3003
87.3212
87.3331
87.3369
87.3335
87.3241
87.3096
87.2925
87.2786
87.2704
87.266
87.2637
87.2626
87.2623
87.2623
87.2624
87.2626
87.2627
87.2627
82.3269
82.8556
83.3519
83.8139
84.2408
84.6326
84.9902
85.3148
85.608
85.8714
86.1069
86.3162
86.501
86.6631
86.804
86.9252
87.0273
87.1113
87.1795
87.2338
87.2757
87.3063
87.3268
87.3382
87.3415
87.3378
87.328
87.3129
87.2941
87.2749
87.2619
87.2575
87.2573
87.2582
87.2593
87.2603
87.2612
87.2619
87.2624
87.2626
82.3628
82.8905
83.3852
83.8453
84.2703
84.6602
85.0159
85.3387
85.6302
85.892
86.1259
86.3338
86.5173
86.6781
86.8178
86.938
87.0391
87.1223
87.1896
87.2432
87.2843
87.3143
87.3342
87.345
87.3477
87.3435
87.3331
87.3175
87.2977
87.2756
87.2557
87.2456
87.2461
87.2501
87.2541
87.2572
87.2595
87.261
87.2619
87.2623
82.4078
82.9342
83.4268
83.8846
84.3071
84.6946
85.048
85.3685
85.6578
85.9176
86.1496
86.3556
86.5375
86.6968
86.8351
86.9539
87.0539
87.1359
87.2022
87.2548
87.2951
87.3242
87.3433
87.3533
87.3554
87.3504
87.3394
87.3231
87.3025
87.2789
87.2548
87.2364
87.2322
87.2384
87.2462
87.2525
87.2569
87.2597
87.2614
87.262
82.4618
82.9868
83.4768
83.9318
84.3514
84.7359
85.0864
85.4042
85.6909
85.9482
86.1779
86.3818
86.5617
86.7191
86.8557
86.973
87.0715
87.1522
87.2172
87.2687
87.3079
87.336
87.3542
87.3633
87.3646
87.3588
87.3469
87.3298
87.3084
87.2836
87.2571
87.2329
87.2196
87.2235
87.2351
87.2459
87.2535
87.2581
87.2606
87.2616
82.5251
83.0481
83.5352
83.9868
84.4029
84.784
85.1312
85.4458
85.7294
85.9838
86.2109
86.4123
86.5898
86.7451
86.8797
86.9951
87.092
87.1711
87.2347
87.2848
87.3228
87.3497
87.3668
87.3749
87.3752
87.3684
87.3556
87.3376
87.3152
87.2893
87.2611
87.2333
87.2122
87.208
87.2206
87.237
87.2489
87.2559
87.2597
87.2611
82.5976
83.1184
83.602
84.0497
84.4618
84.839
85.1823
85.4932
85.7733
86.0245
86.2484
86.447
86.6219
86.7747
86.9071
87.0204
87.1152
87.1926
87.2546
87.3032
87.3397
87.3653
87.3811
87.3881
87.3872
87.3794
87.3656
87.3465
87.323
87.296
87.2663
87.2359
87.2093
87.1959
87.2034
87.2256
87.243
87.2532
87.2586
87.2606
82.6793
83.1975
83.6772
84.1205
84.528
84.9007
85.2397
85.5464
85.8226
86.0701
86.2906
86.4859
86.6578
86.8079
86.9377
87.0486
87.1413
87.2167
87.2768
87.3237
87.3586
87.3828
87.3972
87.4028
87.4007
87.3917
87.3767
87.3565
87.3319
87.3036
87.2725
87.2399
87.2093
87.1885
87.1874
87.2128
87.2359
87.2499
87.2572
87.2599
82.7705
83.2857
83.7608
84.1991
84.6016
84.9692
85.3033
85.6054
85.8772
86.1206
86.3373
86.529
86.6976
86.8446
86.9716
87.0799
87.1702
87.2434
87.3014
87.3464
87.3795
87.402
87.4149
87.4191
87.4157
87.4054
87.3891
87.3676
87.3417
87.3121
87.2795
87.2451
87.2113
87.1846
87.1755
87.2001
87.2279
87.246
87.2556
87.2591
82.8711
83.3829
83.8529
84.2855
84.6824
85.0445
85.3732
85.6702
85.9372
86.176
86.3884
86.5763
86.7412
86.8849
87.0087
87.1141
87.2018
87.2725
87.3284
87.3712
87.4024
87.4231
87.4343
87.437
87.432
87.4203
87.4026
87.3797
87.3525
87.3214
87.2874
87.2511
87.2147
87.1833
87.1673
87.1882
87.2196
87.2417
87.2538
87.2581
82.9812
83.4891
83.9534
84.3799
84.7704
85.1264
85.4492
85.7406
86.0024
86.2362
86.444
86.6276
86.7886
86.9285
87.049
87.1513
87.2361
87.3042
87.3576
87.3982
87.4273
87.446
87.4554
87.4563
87.4498
87.4365
87.4173
87.393
87.3643
87.3317
87.2961
87.258
87.2192
87.1839
87.1621
87.178
87.2114
87.237
87.2517
87.257
83.1008
83.6043
84.0623
84.482
84.8657
85.215
85.5314
85.8167
86.0727
86.3012
86.504
86.683
86.8396
86.9756
87.0924
87.1914
87.273
87.3383
87.389
87.4272
87.454
87.4706
87.4781
87.4772
87.4689
87.454
87.4332
87.4074
87.3771
87.343
87.3057
87.2658
87.2247
87.186
87.1592
87.1698
87.2037
87.2323
87.2495
87.2558
83.2301
83.7287
84.1797
84.5919
84.9681
85.3102
85.6197
85.8984
86.1482
86.3709
86.5684
86.7423
86.8944
87.0261
87.139
87.2342
87.3126
87.3748
87.4227
87.4582
87.4826
87.497
87.5023
87.4995
87.4894
87.4727
87.4503
87.4228
87.3909
87.3551
87.3161
87.2745
87.2312
87.1894
87.1582
87.164
87.1969
87.2276
87.2471
87.2545
83.3691
83.8622
84.3055
84.7096
85.0777
85.4119
85.7139
85.9856
86.2288
86.4453
86.637
86.8056
86.9527
87.0799
87.1885
87.2799
87.3547
87.4137
87.4586
87.4913
87.5131
87.5251
87.5282
87.5232
87.5112
87.4927
87.4685
87.4393
87.4057
87.3682
87.3275
87.284
87.2386
87.194
87.1589
87.1603
87.1912
87.2231
87.2447
87.253
83.5179
84.0049
84.4398
84.8349
85.1943
85.5201
85.8141
86.0783
86.3143
86.5243
86.7098
86.8727
87.0146
87.1369
87.2411
87.3284
87.3994
87.4549
87.4965
87.5263
87.5453
87.5548
87.5555
87.5484
87.5342
87.5138
87.4878
87.4568
87.4214
87.3822
87.3397
87.2943
87.2468
87.1996
87.1611
87.1586
87.1866
87.2189
87.2422
87.2514
83.6765
84.1566
84.5824
84.968
85.318
85.6347
85.9202
86.1763
86.4048
86.6077
86.7868
86.9436
87.08
87.1972
87.2966
87.3795
87.4465
87.4983
87.5366
87.5632
87.5793
87.5861
87.5843
87.5749
87.5586
87.5361
87.5082
87.4753
87.4382
87.3972
87.3528
87.3055
87.256
87.2063
87.1646
87.1585
87.1831
87.2152
87.2398
87.2498
83.845
84.3177
84.7333
85.1086
85.4485
85.7557
86.032
86.2795
86.5001
86.6956
86.8678
87.0183
87.1487
87.2605
87.355
87.4333
87.496
87.544
87.5787
87.6019
87.615
87.6189
87.6146
87.6027
87.5842
87.5596
87.5296
87.4949
87.4558
87.413
87.3668
87.3176
87.2659
87.2139
87.1694
87.1595
87.1806
87.212
87.2375
87.2481
84.0145
84.4868
84.8934
85.2571
85.586
85.8828
86.1495
86.388
86.6001
86.7878
86.9527
87.0965
87.2208
87.3269
87.4161
87.4895
87.5478
87.5917
87.6227
87.6425
87.6524
87.6533
87.6462
87.6318
87.6109
87.5841
87.5521
87.5154
87.4744
87.4297
87.3816
87.3304
87.2768
87.2224
87.1752
87.1616
87.179
87.2092
87.2353
87.2464
84.2351
84.65
85.0541
85.4119
85.7303
86.0162
86.2725
86.5015
86.7048
86.8842
87.0415
87.1783
87.2961
87.3962
87.4799
87.5483
87.6019
87.6416
87.6686
87.6848
87.6913
87.6891
87.6791
87.6621
87.6388
87.6097
87.5755
87.5368
87.4938
87.4472
87.3972
87.3441
87.2884
87.2318
87.1821
87.1643
87.1781
87.2069
87.2333
87.2446
84.4605
84.8326
85.2199
85.5714
85.8808
86.1556
86.4011
86.6199
86.8139
86.9847
87.134
87.2635
87.3745
87.4684
87.5463
87.6094
87.6582
87.6934
87.7163
87.7287
87.7317
87.7263
87.7134
87.6936
87.6677
87.6363
87.5999
87.559
87.5141
87.4655
87.4136
87.3585
87.3007
87.242
87.1899
87.1677
87.1779
87.2051
87.2315
87.2429
84.6863
85.0323
85.3954
85.736
86.0367
86.3008
86.5351
86.7432
86.9274
87.0891
87.2302
87.3519
87.4559
87.5433
87.6153
87.6728
87.7165
87.7471
87.7658
87.7742
87.7736
87.7648
87.7488
87.7262
87.6977
87.6638
87.6251
87.5821
87.5352
87.4846
87.4307
87.3736
87.3138
87.2529
87.1985
87.1715
87.1782
87.2037
87.2299
87.2412
84.9144
85.2442
85.582
85.907
86.1976
86.4513
86.6742
86.8713
87.0451
87.1975
87.3298
87.4436
87.5402
87.6209
87.6867
87.7385
87.7769
87.8027
87.8169
87.8213
87.8168
87.8046
87.7854
87.7599
87.7286
87.6922
87.6512
87.606
87.5569
87.5043
87.4484
87.3894
87.3275
87.2644
87.2077
87.1756
87.179
87.2027
87.2284
87.2395
85.1474
85.465
85.7794
86.0853
86.3637
86.6067
86.8183
87.0039
87.167
87.3096
87.4329
87.5384
87.6274
87.701
87.7604
87.8062
87.8392
87.86
87.8696
87.8697
87.8614
87.8456
87.8231
87.7945
87.7604
87.7215
87.678
87.6305
87.5793
87.5246
87.4667
87.4056
87.3417
87.2766
87.2176
87.18
87.1801
87.2021
87.2272
87.2379
85.3871
85.6931
85.9864
86.2715
86.5354
86.7669
86.967
87.1409
87.293
87.4253
87.5392
87.6362
87.7173
87.7837
87.8363
87.876
87.9033
87.9189
87.9239
87.9196
87.9072
87.8877
87.8617
87.83
87.7931
87.7515
87.7055
87.6557
87.6023
87.5455
87.4855
87.4224
87.3564
87.2891
87.2278
87.1846
87.1816
87.2018
87.2261
87.2363
85.6344
85.928
86.2018
86.4656
86.7129
86.9318
87.1201
87.2822
87.4228
87.5444
87.6487
87.7368
87.8097
87.8686
87.9144
87.9477
87.9691
87.9794
87.9795
87.9707
87.9542
87.9308
87.9013
87.8664
87.8265
87.7821
87.7337
87.6815
87.6258
87.5669
87.5048
87.4395
87.3714
87.302
87.2382
87.1893
87.1834
87.2018
87.2251
87.2348
85.8899
86.1694
86.4247
86.6671
86.8964
87.1014
87.2773
87.4274
87.5562
87.6669
87.7612
87.8401
87.9046
87.9558
87.9945
88.0213
88.0366
88.0413
88.0364
88.023
88.0022
87.9749
87.9418
87.9035
87.8606
87.8134
87.7623
87.7077
87.6497
87.5886
87.5243
87.457
87.3866
87.3151
87.2488
87.1939
87.1855
87.2021
87.2243
87.2334
86.1537
86.4174
86.6543
86.8755
87.0858
87.2757
87.4387
87.5763
87.6932
87.7926
87.8765
87.946
88.0019
88.0451
88.0765
88.0965
88.1056
88.1045
88.0946
88.0764
88.0512
88.0198
87.983
87.9413
87.8952
87.8452
87.7914
87.7343
87.674
87.6106
87.5441
87.4745
87.402
87.3283
87.2593
87.1985
87.1877
87.2027
87.2236
87.232
86.4259
86.672
86.8902
87.0904
87.2808
87.4546
87.604
87.7288
87.8334
87.9213
87.9946
88.0543
88.1013
88.1364
88.1602
88.1733
88.176
88.169
88.1538
88.1307
88.101
88.0655
88.0249
87.9797
87.9304
87.8774
87.8209
87.7612
87.6984
87.6327
87.564
87.4921
87.4173
87.3413
87.2695
87.2029
87.19
87.2034
87.223
87.2307
86.7061
86.9331
87.1321
87.3112
87.4814
87.638
87.773
87.8848
87.9768
88.0529
88.1152
88.165
88.2029
88.2296
88.2457
88.2516
88.2477
88.2346
88.214
88.186
88.1516
88.1118
88.0673
88.0185
87.966
87.9099
87.8506
87.7883
87.723
87.6549
87.5838
87.5096
87.4324
87.354
87.2791
87.2072
87.1924
87.2044
87.2225
87.2294
86.9941
87.2005
87.3794
87.5375
87.687
87.8258
87.9457
88.0439
88.123
88.187
88.2382
88.2777
88.3063
88.3244
88.3326
88.3313
88.3205
88.3012
88.2751
88.242
88.2029
88.1587
88.1102
88.0578
88.0018
87.9426
87.8804
87.8154
87.7476
87.677
87.6035
87.5268
87.4471
87.3662
87.2867
87.2113
87.1948
87.2054
87.2221
87.2282
87.2896
87.4742
87.632
87.7687
87.8974
88.0178
88.1219
88.206
88.272
88.3237
88.3634
88.3925
88.4115
88.4208
88.421
88.4121
88.3944
88.3687
88.337
88.2986
88.2547
88.2061
88.1534
88.0973
88.0379
87.9755
87.9103
87.8425
87.772
87.6989
87.6228
87.5435
87.4613
87.3773
87.2907
87.215
87.1971
87.2066
87.2218
87.2271
87.5921
87.7538
87.8896
88.0046
88.1121
88.2136
88.3015
88.371
88.4235
88.4626
88.4907
88.5091
88.5183
88.5187
88.5106
88.4941
88.4692
88.437
88.3995
88.3558
88.3069
88.2537
88.1969
88.1369
88.074
88.0083
87.9401
87.8694
87.7962
87.7204
87.6416
87.5597
87.4746
87.3869
87.2917
87.218
87.1995
87.2078
87.2215
87.226
87.9012
88.0391
88.1519
88.2446
88.3309
88.4131
88.4841
88.5386
88.5773
88.6035
88.6198
88.6273
88.6266
88.6178
88.6013
88.5769
88.5448
88.5059
88.4625
88.4134
88.3594
88.3016
88.2406
88.1766
88.1101
88.0411
87.9697
87.8961
87.82
87.7414
87.6598
87.575
87.4869
87.3945
87.2907
87.2205
87.2017
87.209
87.2212
87.225
88.2166
88.3296
88.4185
88.4885
88.5532
88.6158
88.6695
88.7086
88.7332
88.7463
88.7505
88.747
88.7361
88.7181
88.6929
88.6606
88.621
88.5753
88.5259
88.4713
88.4122
88.3496
88.2842
88.2162
88.146
88.0735
87.999
87.9222
87.8432
87.7617
87.6772
87.5893
87.4978
87.3998
87.2887
87.2225
87.2038
87.2102
87.2209
87.224
88.5377
88.6249
88.689
88.7359
88.7789
88.8216
88.8576
88.8808
88.891
88.8908
88.8828
88.868
88.8468
88.8193
88.7853
88.7448
88.6976
88.645
88.5895
88.5292
88.4649
88.3975
88.3276
88.2556
88.1816
88.1056
88.0277
87.9478
87.8657
87.7811
87.6935
87.6024
87.5069
87.4026
87.2858
87.224
87.2059
87.2114
87.2207
87.2231
88.8643
88.9247
88.9631
88.9864
89.0074
89.03
89.048
89.0551
89.0504
89.0367
89.0162
88.9901
88.9584
88.9213
88.8784
88.8295
88.7745
88.7149
88.6531
88.5872
88.5175
88.4452
88.3708
88.2946
88.2167
88.1371
88.0558
87.9726
87.8873
87.7994
87.7085
87.6138
87.5137
87.4029
87.2825
87.2252
87.2078
87.2126
87.2204
87.2223
89.1957
89.2283
89.2404
89.2396
89.2384
89.2408
89.2405
89.231
89.2113
89.1839
89.1508
89.113
89.0708
89.0238
88.9719
88.9145
88.8516
88.7847
88.7168
88.645
88.5699
88.4926
88.4136
88.3331
88.2513
88.1679
88.0831
87.9964
87.9077
87.8164
87.722
87.6233
87.5179
87.4007
87.2791
87.2259
87.2095
87.2136
87.2201
87.2215
89.5321
89.5356
89.5206
89.4953
89.4717
89.4537
89.4348
89.4085
89.3735
89.3321
89.2862
89.2368
89.1838
89.1269
89.0656
88.9996
88.9286
88.8544
88.7801
88.7025
88.6219
88.5395
88.4558
88.371
88.2851
88.1979
88.1094
88.0192
87.9269
87.832
87.7336
87.6304
87.519
87.3963
87.2758
87.2262
87.211
87.2145
87.2198
87.2208
78.8192
79.3452
80.0818
80.9291
81.8133
82.6844
83.5273
78.8191
79.3455
80.0831
80.9325
81.8191
82.6952
83.5373
78.8191
79.3458
80.0841
80.9349
81.8235
82.702
83.5473
78.8191
79.346
80.0851
80.9371
81.8277
82.7084
83.5565
78.8191
79.3462
80.0859
80.9391
81.8312
82.7137
83.5639
78.8191
79.3463
80.0866
80.9406
81.834
82.7177
83.5693
78.8191
79.3465
80.087
80.9417
81.8358
82.7202
83.5726
78.8191
79.3465
80.0873
80.9423
81.8368
82.7215
83.5741
78.8191
79.3466
80.0874
80.9425
81.837
82.7216
83.574
78.8191
79.3465
80.0874
80.9423
81.8366
82.7209
83.5727
78.8191
79.3465
80.0872
80.942
81.8358
82.7196
83.5706
78.8191
79.3465
80.087
80.9414
81.8348
82.7179
83.5681
78.8191
79.3464
80.0868
80.9408
81.8336
82.716
83.5653
78.8191
79.3463
80.0865
80.9402
81.8325
82.7142
83.5627
78.8191
79.3463
80.0863
80.9396
81.8314
82.7126
83.5603
78.8191
79.3462
80.0861
80.9391
81.8305
82.7111
83.5582
78.8191
79.3462
80.0859
80.9387
81.8297
82.7099
83.5565
78.8191
79.3462
80.0857
80.9384
81.8291
82.709
83.555
78.8191
79.3461
80.0856
80.9381
81.8286
82.7082
83.5539
78.8191
79.3461
80.0855
80.9379
81.8282
82.7076
83.553
78.8191
79.3461
80.0855
80.9377
81.8279
82.7071
83.5524
78.8191
79.3461
80.0854
80.9376
81.8277
82.7068
83.5519
78.8191
79.3461
80.0854
80.9375
81.8275
82.7065
83.5515
78.8191
79.3461
80.0854
80.9374
81.8274
82.7063
83.5512
78.8191
79.3461
80.0853
80.9374
81.8273
82.7062
83.551
78.8191
79.3461
80.0853
80.9374
81.8272
82.7061
83.5508
78.8191
79.3461
80.0853
80.9373
81.8272
82.706
83.5507
78.8191
79.3461
80.0853
80.9373
81.8271
82.706
83.5506
78.8191
79.3461
80.0853
80.9373
81.8271
82.7059
83.5506
78.8191
79.3461
80.0853
80.9373
81.8271
82.7059
83.5505
78.8191
79.3461
80.0853
80.9373
81.8271
82.7059
83.5505
78.8191
79.3461
80.0853
80.9373
81.8271
82.7059
83.5504
78.8191
79.3461
80.0853
80.9373
81.8271
82.7059
83.5504
78.8191
79.3461
80.0853
80.9373
81.8271
82.7059
83.5503
78.8191
79.3461
80.0853
80.9373
81.827
82.7059
83.5503
78.8191
79.3461
80.0853
80.9373
81.827
82.7059
83.5503
78.8191
79.3461
80.0853
80.9373
81.827
82.7059
83.5502
78.8191
79.3461
80.0853
80.9373
81.827
82.7059
83.5502
78.8191
79.3461
80.0853
80.9373
81.827
82.7059
83.5502
78.8191
79.3461
80.0853
80.9373
81.827
82.7059
83.5501
84.0243
84.2228
84.4334
84.6561
84.8906
85.1364
85.3932
85.6604
85.9376
86.2242
86.5198
86.8238
87.1358
87.4553
87.7817
88.1145
88.453
88.7968
89.145
89.4975
84.0447
84.2525
84.4723
84.7028
84.9433
85.1936
85.4534
85.7223
86.0002
86.2866
86.5813
86.884
87.1941
87.5114
87.8354
88.1656
88.5015
88.8426
89.1883
89.5384
84.056
84.2638
84.4832
84.7129
84.9526
85.2019
85.4607
85.7287
86.0058
86.2915
86.5855
86.8876
87.1972
87.5139
87.8374
88.167
88.5024
88.8429
89.188
89.5375
84.0662
84.2741
84.4934
84.7231
84.9627
85.2119
85.4705
85.7383
86.0151
86.3004
86.594
86.8955
87.2045
87.5206
87.8433
88.1721
88.5065
88.846
89.1901
89.5384
84.0742
84.282
84.5013
84.7307
84.97
85.2189
85.4772
85.7446
86.0209
86.3057
86.5987
86.8996
87.2079
87.5232
87.8451
88.1731
88.5066
88.8452
89.1881
89.5354
84.0798
84.2876
84.5066
84.7358
84.9748
85.2233
85.4812
85.7482
86.024
86.3083
86.6007
86.901
87.2086
87.5232
87.8443
88.1714
88.504
88.8416
89.1836
89.5297
84.0831
84.2908
84.5096
84.7386
84.9772
85.2254
85.4829
85.7494
86.0247
86.3085
86.6003
86.8999
87.2068
87.5206
87.8409
88.1671
88.4988
88.8354
89.1763
89.5214
84.0845
84.292
84.5106
84.7393
84.9776
85.2255
85.4826
85.7487
86.0235
86.3067
86.5979
86.8969
87.2031
87.5162
87.8357
88.1611
88.4919
88.8275
89.1675
89.5115
84.0841
84.2915
84.5099
84.7384
84.9765
85.224
85.4807
85.7464
86.0207
86.3034
86.5941
86.8924
87.198
87.5104
87.8291
88.1536
88.4835
88.8182
89.1572
89.5002
84.0824
84.2898
84.5081
84.7363
84.9742
85.2214
85.4778
85.7431
86.017
86.2992
86.5894
86.8871
87.192
87.5037
87.8217
88.1454
88.4745
88.8084
89.1464
89.4884
84.0799
84.2872
84.5054
84.7335
84.9712
85.2182
85.4743
85.7393
86.0128
86.2945
86.5842
86.8814
87.1857
87.4967
87.814
88.137
88.4653
88.7983
89.1354
89.4764
84.0769
84.2843
84.5025
84.7305
84.968
85.2148
85.4707
85.7353
86.0085
86.2899
86.5791
86.8758
87.1795
87.4899
87.8065
88.1289
88.4564
88.7886
89.1249
89.465
84.0738
84.2813
84.4995
84.7275
84.9649
85.2116
85.4673
85.7317
86.0045
86.2855
86.5743
86.8705
87.1738
87.4836
87.7996
88.1213
88.4481
88.7795
89.115
89.4543
84.0709
84.2785
84.4968
84.7248
84.9622
85.2088
85.4643
85.7285
86.0011
86.2818
86.5702
86.866
87.1688
87.4781
87.7936
88.1146
88.4407
88.7715
89.1063
89.4448
84.0683
84.2761
84.4945
84.7226
84.96
85.2066
85.462
85.726
85.9984
86.2788
86.5669
86.8624
87.1647
87.4735
87.7884
88.1089
88.4344
88.7645
89.0986
89.4364
84.0661
84.2741
84.4927
84.7209
84.9585
85.205
85.4604
85.7243
85.9965
86.2767
86.5645
86.8596
87.1616
87.47
87.7844
88.1043
88.4293
88.7588
89.0922
89.4293
84.0642
84.2726
84.4915
84.7199
84.9575
85.2041
85.4595
85.7234
85.9955
86.2755
86.563
86.8578
87.1594
87.4674
87.7814
88.1008
88.4252
88.7542
89.087
89.4235
84.0628
84.2716
84.4908
84.7195
84.9573
85.204
85.4594
85.7232
85.9952
86.2751
86.5624
86.857
87.1582
87.4659
87.7794
88.0984
88.4223
88.7506
89.0829
89.4187
84.0618
84.271
84.4906
84.7196
84.9576
85.2045
85.46
85.7238
85.9958
86.2755
86.5627
86.8569
87.1579
87.4652
87.7783
88.0968
88.4202
88.748
89.0797
89.415
84.0611
84.2708
84.4909
84.7202
84.9585
85.2056
85.4612
85.7251
85.9971
86.2767
86.5637
86.8577
87.1584
87.4653
87.778
88.0961
88.419
88.7463
89.0774
89.4121
84.0607
84.271
84.4915
84.7213
84.96
85.2073
85.4631
85.7271
85.999
86.2786
86.5654
86.8592
87.1596
87.4662
87.7785
88.0961
88.4185
88.7453
89.0758
89.4099
84.0605
84.2715
84.4926
84.7229
84.9619
85.2096
85.4655
85.7296
86.0016
86.2811
86.5678
86.8614
87.1615
87.4677
87.7796
88.0968
88.4187
88.7449
89.0749
89.4084
84.0605
84.2722
84.494
84.7248
84.9643
85.2123
85.4685
85.7328
86.0048
86.2842
86.5708
86.8642
87.164
87.4699
87.7814
88.098
88.4194
88.745
89.0744
89.4073
84.0606
84.2732
84.4958
84.7272
84.9672
85.2156
85.4721
85.7365
86.0086
86.288
86.5744
86.8676
87.1671
87.4726
87.7837
88.0998
88.4206
88.7456
89.0744
89.4065
84.0609
84.2745
84.4978
84.7299
84.9705
85.2193
85.4762
85.7408
86.0129
86.2923
86.5787
86.8716
87.1708
87.4759
87.7864
88.102
88.4223
88.7466
89.0746
89.4061
84.0613
84.2759
84.5002
84.7331
84.9743
85.2236
85.4808
85.7457
86.0179
86.2973
86.5835
86.8762
87.1751
87.4797
87.7898
88.1048
88.4243
88.748
89.0752
89.4059
84.0618
84.2776
84.5029
84.7367
84.9786
85.2284
85.486
85.7512
86.0235
86.3029
86.589
86.8814
87.1799
87.4841
87.7936
88.1079
88.4268
88.7496
89.0761
89.4059
84.0624
84.2795
84.5059
84.7407
84.9834
85.2338
85.4919
85.7573
86.0298
86.3092
86.5951
86.8873
87.1854
87.489
87.7979
88.1115
88.4296
88.7516
89.0772
89.406
84.0632
84.2817
84.5093
84.7451
84.9887
85.2399
85.4984
85.7642
86.0368
86.3162
86.602
86.8938
87.1915
87.4946
87.8028
88.1156
88.4328
88.7539
89.0785
89.4063
84.064
84.2841
84.5131
84.7501
84.9946
85.2466
85.5057
85.7718
86.0446
86.324
86.6096
86.9011
87.1983
87.5008
87.8082
88.1202
88.4365
88.7565
89.08
89.4067
84.0649
84.2868
84.5173
84.7556
85.0012
85.254
85.5137
85.7802
86.0533
86.3327
86.6181
86.9092
87.2059
87.5077
87.8143
88.1254
88.4406
88.7595
89.0818
89.4072
84.0659
84.2898
84.522
84.7617
85.0085
85.2622
85.5227
85.7896
86.0629
86.3423
86.6275
86.9182
87.2143
87.5153
87.821
88.1311
88.4451
88.7628
89.0837
89.4078
84.0671
84.2931
84.5272
84.7685
85.0166
85.2713
85.5325
85.8
86.0735
86.3529
86.6379
86.9282
87.2236
87.5238
87.8285
88.1374
88.4502
88.7665
89.086
89.4085
84.0683
84.2967
84.5329
84.776
85.0255
85.2814
85.5435
85.8115
86.0853
86.3647
86.6494
86.9392
87.2339
87.5332
87.8368
88.1444
88.4558
88.7706
89.0884
89.4093
84.0698
84.3008
84.5393
84.7843
85.0355
85.2926
85.5556
85.8242
86.0983
86.3777
86.6622
86.9514
87.2453
87.5436
87.846
88.1522
88.462
88.7751
89.0912
89.4102
84.0713
84.3053
84.5463
84.7935
85.0464
85.305
85.569
85.8383
86.1128
86.3921
86.6763
86.965
87.258
87.5551
87.8562
88.1608
88.4689
88.7802
89.0943
89.4112
84.0731
84.3102
84.5541
84.8036
85.0586
85.3187
85.5838
85.8539
86.1287
86.4081
86.6919
86.9799
87.272
87.5679
87.8674
88.1704
88.4766
88.7857
89.0977
89.4123
84.075
84.3157
84.5627
84.8149
85.072
85.3338
85.6002
85.8711
86.1464
86.4258
86.7092
86.9965
87.2875
87.582
87.8799
88.1809
88.485
88.7919
89.1014
89.4136
84.0771
84.3218
84.5722
84.8273
85.0868
85.3506
85.6184
85.8902
86.1659
86.4453
86.7283
87.0148
87.3046
87.5976
87.8937
88.1927
88.4944
88.7988
89.1056
89.415
84.0795
84.3285
84.5827
84.8411
85.1033
85.3691
85.6385
85.9113
86.1875
86.4669
86.7495
87.035
87.3235
87.6148
87.9089
88.2055
88.5047
88.8063
89.1102
89.4165
87.2202
87.2197
87.2192
87.2188
87.2184
87.2181
87.2179
87.2178
87.2178
87.218
87.2184
87.2189
87.2196
87.2205
87.2217
87.2231
87.2248
87.2268
87.2291
87.2318
87.2348
87.2382
87.242
87.2462
87.2509
87.256
87.2617
87.2679
87.2747
87.2821
87.2902
87.2989
87.3083
87.3186
87.3296
87.3416
87.3544
87.3683
87.3832
87.3993
87.4165
87.435
87.4548
87.4759
87.4986
87.5227
87.5484
87.5759
87.6051
87.6361
87.6691
87.7041
87.7413
87.7808
87.8226
87.867
87.914
87.9638
88.0165
88.0724
88.1317
88.1945
88.2612
88.3319
88.4069
88.4865
88.571
88.6608
88.7562
88.8577
88.9657
89.0807
89.2035
89.3345
89.4743
89.6239
89.7839
89.9552
90.1387
90.3353
87.2195
87.2192
87.2188
87.2185
87.2182
87.2179
87.2177
87.2177
87.2177
87.2179
87.2182
87.2187
87.2195
87.2204
87.2216
87.223
87.2247
87.2267
87.229
87.2316
87.2347
87.2381
87.2419
87.2461
87.2508
87.256
87.2617
87.2679
87.2747
87.2822
87.2902
87.299
87.3085
87.3188
87.3299
87.3419
87.3548
87.3687
87.3837
87.3998
87.4171
87.4356
87.4555
87.4767
87.4993
87.5235
87.5493
87.5768
87.606
87.6371
87.6701
87.7051
87.7423
87.7818
87.8237
87.868
87.915
87.9648
88.0175
88.0734
88.1327
88.1955
88.2622
88.3329
88.4078
88.4874
88.5719
88.6617
88.7571
88.8586
88.9666
89.0817
89.2044
89.3354
89.4752
89.6248
89.7848
89.9561
90.1396
90.3361
87.2153
87.2158
87.2163
87.2166
87.2168
87.217
87.2171
87.2173
87.2176
87.2179
87.2183
87.2189
87.2197
87.2206
87.2218
87.2232
87.2249
87.227
87.2293
87.2319
87.235
87.2384
87.2423
87.2465
87.2513
87.2565
87.2623
87.2686
87.2756
87.2831
87.2914
87.3003
87.31
87.3204
87.3318
87.344
87.3571
87.3713
87.3865
87.4028
87.4203
87.4391
87.4591
87.4805
87.5034
87.5277
87.5537
87.5812
87.6106
87.6417
87.6748
87.7099
87.7472
87.7867
87.8286
87.8729
87.9199
87.9697
88.0224
88.0783
88.1375
88.2003
88.2669
88.3376
88.4125
88.4921
88.5765
88.6663
88.7616
88.8631
88.971
89.0861
89.2088
89.3397
89.4796
89.6291
89.789
89.9603
90.1438
90.3404
87.2122
87.2132
87.2141
87.2149
87.2157
87.2165
87.2172
87.2179
87.2186
87.2193
87.2201
87.221
87.222
87.2231
87.2244
87.2259
87.2277
87.2297
87.2321
87.2348
87.2379
87.2414
87.2453
87.2497
87.2545
87.2599
87.2659
87.2724
87.2796
87.2874
87.296
87.3053
87.3153
87.3262
87.3379
87.3506
87.3642
87.3789
87.3946
87.4115
87.4295
87.4487
87.4693
87.4911
87.5144
87.5391
87.5654
87.5933
87.6229
87.6543
87.6875
87.7228
87.7602
87.7997
87.8416
87.886
87.933
87.9827
88.0354
88.0912
88.1504
88.2131
88.2796
88.3501
88.425
88.5044
88.5888
88.6784
88.7737
88.875
88.9828
89.0978
89.2204
89.3513
89.4911
89.6405
89.8004
89.9717
90.1552
90.3516
87.2263
87.2267
87.2274
87.2281
87.2288
87.2293
87.2297
87.2302
87.2307
87.2312
87.2318
87.2325
87.2333
87.2343
87.2355
87.237
87.2387
87.2407
87.243
87.2457
87.2487
87.2522
87.2561
87.2606
87.2655
87.2711
87.2772
87.2841
87.2916
87.2998
87.3088
87.3186
87.3292
87.3407
87.3531
87.3665
87.381
87.3964
87.413
87.4307
87.4495
87.4696
87.4909
87.5135
87.5374
87.5628
87.5897
87.6181
87.6482
87.6799
87.7135
87.749
87.7866
87.8263
87.8683
87.9127
87.9596
88.0093
88.0619
88.1176
88.1766
88.2392
88.3055
88.3759
88.4506
88.5298
88.614
88.7034
88.7985
88.8996
89.0073
89.1221
89.2445
89.3753
89.5149
89.6643
89.8241
89.9953
90.1787
90.3751
87.273
87.2718
87.2713
87.2708
87.2703
87.2701
87.2704
87.2709
87.2712
87.2713
87.2713
87.2712
87.2711
87.2712
87.2714
87.2719
87.2727
87.2738
87.2752
87.2771
87.2795
87.2824
87.2858
87.2899
87.2947
87.3001
87.3063
87.3132
87.3208
87.3293
87.3387
87.349
87.3602
87.3724
87.3856
87.3999
87.4152
87.4316
87.4492
87.4679
87.4877
87.5087
87.531
87.5545
87.5793
87.6055
87.633
87.6621
87.6927
87.725
87.759
87.7949
87.8327
87.8726
87.9147
87.9591
88.006
88.0556
88.1081
88.1637
88.2226
88.2849
88.351
88.4212
88.4956
88.5745
88.6584
88.7476
88.8424
88.9432
89.0507
89.1653
89.2875
89.4181
89.5576
89.7068
89.8665
90.0376
90.2209
90.4172
87.3906
87.3857
87.3757
87.3659
87.3578
87.352
87.3484
87.3464
87.345
87.3439
87.3435
87.3435
87.3435
87.3436
87.3437
87.3439
87.3442
87.3446
87.3452
87.3462
87.3476
87.3495
87.3521
87.3553
87.3592
87.3639
87.3694
87.3758
87.383
87.3913
87.4006
87.4109
87.4224
87.4349
87.4486
87.4635
87.4795
87.4967
87.5151
87.5346
87.5552
87.577
87.6
87.6243
87.6498
87.6766
87.7047
87.7343
87.7654
87.7981
87.8324
87.8686
87.9065
87.9465
87.9886
88.033
88.0798
88.1293
88.1816
88.237
88.2956
88.3577
88.4235
88.4933
88.5674
88.646
88.7296
88.8184
88.9128
89.0134
89.1206
89.2349
89.3569
89.4873
89.6266
89.7757
89.9353
90.1064
90.2896
90.4858
87.5156
87.5107
87.5035
87.4955
87.4885
87.4849
87.4814
87.4774
87.4671
87.4576
87.4512
87.4475
87.4461
87.4458
87.4462
87.4467
87.4475
87.4488
87.4505
87.4525
87.4548
87.4574
87.4604
87.4638
87.4677
87.4724
87.4777
87.4839
87.4909
87.499
87.5081
87.5183
87.5297
87.5423
87.5561
87.5712
87.5875
87.6049
87.6235
87.6433
87.6643
87.6865
87.7099
87.7345
87.7603
87.7874
87.8158
87.8456
87.8769
87.9097
87.9441
87.9801
88.018
88.0578
88.0997
88.1438
88.1904
88.2396
88.2917
88.3468
88.4051
88.4668
88.5322
88.6017
88.6754
88.7537
88.8369
88.9254
89.0195
89.1198
89.2267
89.3408
89.4627
89.5929
89.7322
89.8812
90.0408
90.2118
90.3951
90.5911
87.6335
87.6352
87.6362
87.636
87.6335
87.6283
87.6215
87.6143
87.6072
87.6023
87.6015
87.6011
87.6008
87.5945
87.5875
87.5833
87.5823
87.5836
87.5862
87.5891
87.5921
87.5955
87.5995
87.6044
87.61
87.6162
87.6231
87.6305
87.6388
87.6479
87.6579
87.669
87.681
87.6941
87.7083
87.7237
87.7404
87.7582
87.7772
87.7975
87.8189
87.8415
87.8653
87.8903
87.9165
87.9439
87.9725
88.0025
88.034
88.0669
88.1013
88.1372
88.1749
88.2145
88.2561
88.3001
88.3464
88.3955
88.4474
88.5023
88.5603
88.6218
88.6869
88.7562
88.8298
88.908
88.9912
89.0796
89.1736
89.2739
89.3809
89.4951
89.6171
89.7474
89.8867
90.0359
90.1957
90.3669
90.5502
90.7464
87.7408
87.746
87.7512
87.7564
87.7612
87.7654
87.7686
87.7709
87.772
87.7709
87.7678
87.7642
87.7619
87.7621
87.7644
87.7671
87.7704
87.7747
87.7753
87.7713
87.7685
87.7689
87.7723
87.7779
87.7842
87.7908
87.7979
87.8059
87.8154
87.8262
87.838
87.8507
87.8642
87.8787
87.8943
87.9111
87.9291
87.9482
87.9685
87.9898
88.0123
88.036
88.0608
88.0868
88.1138
88.142
88.1715
88.2022
88.2343
88.2678
88.3028
88.3394
88.3777
88.4179
88.4602
88.5047
88.5516
88.6012
88.6536
88.7088
88.7671
88.8288
88.8944
88.9641
89.0383
89.1171
89.2007
89.2897
89.3843
89.4852
89.593
89.7079
89.8306
89.9615
90.1016
90.2515
90.412
90.584
90.768
90.9646
87.8421
87.8492
87.8567
87.8646
87.8728
87.8813
87.8899
87.8986
87.9071
87.9151
87.9224
87.9288
87.9347
87.9403
87.946
87.9517
87.9578
87.9647
87.9719
87.9788
87.9858
87.9938
88.0026
88.0094
88.0089
88.0082
88.0108
88.0174
88.0275
88.0392
88.0512
88.0637
88.0773
88.0927
88.1099
88.1287
88.1485
88.1692
88.191
88.214
88.2383
88.2639
88.2906
88.3183
88.3471
88.3769
88.4081
88.4405
88.4741
88.5091
88.5456
88.5837
88.6236
88.6654
88.7093
88.7552
88.8036
88.8545
88.9083
88.9651
89.0252
89.0889
89.1564
89.2281
89.3043
89.3849
89.4702
89.5608
89.6573
89.7602
89.8699
89.9867
90.111
90.2437
90.3855
90.5372
90.6995
90.8731
91.0585
91.2566
87.9396
87.948
87.957
87.9666
87.9767
87.9873
87.9985
88.0103
88.0225
88.0351
88.0481
88.0613
88.0744
88.0875