/*--------------------------------*- C++ -*----------------------------------*\
  =========                 |
  \\      /  F ield         | OpenFOAM: The Open Source CFD Toolbox
   \\    /   O peration     | Website:  https://openfoam.org
    \\  /    A nd           | Version:  13
     \\/     M anipulation  |
\*---------------------------------------------------------------------------*/
FoamFile
{
    format      ascii;
    class       volVectorField;
    location    "286";
    object      U;
}
// * * * * * * * * * * * * * * * * * * * * * * * * * * * * * * * * * * * * * //

dimensions      [0 1 -1 0 0 0 0];

internalField   nonuniform List<vector> 
26820
(
(5.39977 0.000106009 3.65246e-21)
(5.39793 0.000310788 -2.47943e-22)
(5.39443 0.000527996 5.28118e-22)
(5.3896 0.00076545 -8.53897e-22)
(5.38374 0.0010341 5.97461e-22)
(5.37706 0.00132629 0)
(5.3696 0.00170168 7.06014e-22)
(5.39977 0.00030615 -4.28354e-21)
(5.39794 0.000917752 4.50783e-21)
(5.39445 0.0015664 0)
(5.38963 0.00227513 0)
(5.3838 0.0030792 0)
(5.37715 0.00395235 0)
(5.36973 0.00507913 -3.17154e-21)
(5.39977 0.000498161 5.65216e-22)
(5.39795 0.00151805 -5.33811e-21)
(5.39447 0.0025967 2.45963e-21)
(5.38967 0.00377409 -7.38833e-23)
(5.38387 0.00511298 -2.81292e-21)
(5.37727 0.00656434 5.91259e-21)
(5.36991 0.00844563 -6.25498e-21)
(5.39977 0.000695746 1.88359e-20)
(5.39795 0.00212786 -1.05216e-20)
(5.39449 0.00363732 7.42669e-21)
(5.38972 0.00528355 -2.57715e-21)
(5.38396 0.00715748 5.51519e-21)
(5.37744 0.00918556 3.0143e-21)
(5.37017 0.0118225 -1.23076e-20)
(5.39977 0.000895115 -1.85829e-20)
(5.39796 0.00273818 1.03976e-20)
(5.39452 0.00467713 -1.98573e-23)
(5.38979 0.00679053 1.03166e-20)
(5.38409 0.00919754 0)
(5.37767 0.0117977 0)
(5.37052 0.0151873 -3.05476e-21)
(5.39976 0.0010954 0)
(5.39797 0.00334892 0)
(5.39455 0.00571669 -1.44079e-20)
(5.38987 0.00829583 -1.52997e-20)
(5.38425 0.0112342 -1.63357e-20)
(5.37795 0.014401 1.16063e-20)
(5.37095 0.0185407 -5.62638e-21)
(5.39976 0.00129664 -1.4818e-20)
(5.39798 0.00396067 -2.02268e-20)
(5.3946 0.00675629 2.86229e-20)
(5.38998 0.00979924 0)
(5.38445 0.0132665 2.15156e-20)
(5.3783 0.0169931 5.48649e-21)
(5.37148 0.0218791 2.39444e-20)
(5.39976 0.00149896 4.89701e-23)
(5.398 0.00457358 2.23125e-20)
(5.39465 0.00779565 -1.88276e-20)
(5.3901 0.0113001 -4.96961e-21)
(5.38468 0.0152932 -1.07063e-20)
(5.37871 0.0195715 -1.13635e-20)
(5.37209 0.0251993 -3.69705e-23)
(5.39976 0.00170238 1.65527e-20)
(5.39801 0.00518763 4.44087e-21)
(5.39471 0.00883437 -4.64241e-21)
(5.39025 0.0127976 0)
(5.38495 0.0173132 0)
(5.37919 0.0221339 1.12475e-20)
(5.3728 0.0284982 -1.19521e-20)
(5.39976 0.00190692 0)
(5.39803 0.00580267 1.73827e-20)
(5.39478 0.00987194 -1.85263e-20)
(5.39042 0.0142912 0)
(5.38525 0.0193248 -1.05339e-20)
(5.37973 0.0246777 -1.12673e-20)
(5.37361 0.0317723 -6.14483e-21)
(5.39976 0.00211253 3.22451e-20)
(5.39806 0.00641847 -1.72931e-20)
(5.39486 0.0109078 3.68553e-20)
(5.3906 0.01578 0)
(5.3856 0.0213265 2.10323e-20)
(5.38033 0.0272006 0)
(5.37451 0.0350181 0)
(5.39976 0.00231916 -2.14674e-21)
(5.39809 0.00703469 6.45254e-21)
(5.39495 0.0119411 -3.19019e-20)
(5.39082 0.0172631 -9.70503e-21)
(5.38599 0.0233165 -1.0515e-20)
(5.381 0.0297005 0)
(5.3755 0.038232 -2.4105e-20)
(5.39976 0.0025267 -3.18228e-20)
(5.39812 0.00765086 4.29079e-21)
(5.39506 0.0129712 -4.42858e-21)
(5.39105 0.0187398 9.9038e-21)
(5.38642 0.0252927 -1.03456e-20)
(5.38174 0.0321756 -1.14856e-20)
(5.3766 0.0414097 3.52279e-20)
(5.39976 0.00273502 3.95809e-21)
(5.39816 0.00826644 -4.21878e-21)
(5.39518 0.0139971 1.82167e-20)
(5.39131 0.0202089 1.94563e-20)
(5.38689 0.0272524 -1.04173e-20)
(5.38255 0.0346246 -1.1208e-20)
(5.37779 0.0445456 -6.02083e-21)
(5.39977 0.00294393 0)
(5.3982 0.00888085 1.68303e-20)
(5.39531 0.0150181 0)
(5.3916 0.0216701 -1.95743e-20)
(5.38741 0.0291936 2.09271e-20)
(5.38343 0.0370471 -2.2582e-20)
(5.37908 0.0476325 4.16321e-20)
(5.39977 0.0031531 0)
(5.39825 0.00949293 -1.69032e-20)
(5.39545 0.0160336 -9.17033e-21)
(5.39191 0.0231234 9.536e-21)
(5.38797 0.0311159 -2.13574e-20)
(5.38437 0.0394467 1.07413e-20)
(5.38046 0.0506628 2.36252e-20)
(5.39978 0.00336236 -1.56075e-20)
(5.3983 0.0101 0)
(5.39562 0.0170383 0)
(5.39225 0.0245624 -9.83851e-21)
(5.38858 0.0330131 0)
(5.38538 0.0418255 1.13737e-20)
(5.38194 0.0536259 -2.37558e-20)
(5.39979 0.00357308 1.96667e-20)
(5.39836 0.0107016 -4.21896e-21)
(5.39579 0.0180244 0)
(5.39262 0.0259661 0)
(5.38925 0.0348512 2.13915e-20)
(5.38644 0.044151 -2.8121e-20)
(5.38352 0.0564673 2.42972e-20)
(5.3998 0.00378984 0)
(5.39842 0.011323 8.57891e-21)
(5.39597 0.0190408 -9.13673e-21)
(5.393 0.0273887 5.07717e-21)
(5.38995 0.0366604 -3.20246e-20)
(5.38755 0.0464002 3.09984e-20)
(5.38519 0.0590918 2.11186e-20)
(5.39982 0.00401036 0)
(5.39849 0.0120453 9.47722e-21)
(5.39616 0.0203603 -1.00524e-20)
(5.39338 0.0293804 5.45664e-21)
(5.39067 0.0392845 0)
(5.38867 0.0496557 -2.7583e-20)
(5.38701 0.0627118 2.86824e-20)
(5.36096 0.00197563 3.12791e-23)
(5.35072 0.00224354 -1.60429e-21)
(5.33917 0.00252032 8.78525e-22)
(5.32621 0.00282067 8.08062e-21)
(5.31177 0.00315056 -5.86658e-22)
(5.2957 0.003514 -5.16016e-21)
(5.27785 0.0039159 7.02364e-22)
(5.25802 0.00436206 0)
(5.23601 0.00485881 0)
(5.21158 0.00541321 0)
(5.18448 0.00603323 0)
(5.1544 0.00672795 0)
(5.12101 0.00750767 -3.86072e-22)
(5.08394 0.00838403 6.21668e-22)
(5.04278 0.00937065 3.5364e-21)
(4.99699 0.0104834 0)
(4.94611 0.0117281 3.1248e-22)
(4.88968 0.013156 -5.38626e-22)
(4.82687 0.0147676 3.90315e-21)
(4.75696 0.0165852 0)
(4.67925 0.0186403 2.94761e-21)
(4.59285 0.0209715 2.42898e-22)
(4.49672 0.0236187 4.36396e-21)
(4.3898 0.0266255 -2.89547e-21)
(4.27089 0.0300411 0)
(4.13871 0.0339212 0)
(3.99186 0.0383276 -2.73315e-21)
(3.82885 0.0433284 0)
(3.64808 0.0489974 4.07979e-21)
(3.4479 0.0554141 -4.3045e-21)
(3.22659 0.0626616 -7.23571e-22)
(2.98244 0.0708243 3.59101e-21)
(2.71374 0.0799831 5.56091e-22)
(2.41897 0.0902072 3.7444e-23)
(2.09654 0.101533 -1.51325e-21)
(1.74615 0.113939 8.67189e-22)
(1.36282 0.127074 0)
(0.961567 0.139676 0)
(0.534618 0.146779 0)
(0.116238 0.112451 0)
(5.36113 0.00589499 2.95158e-21)
(5.35092 0.00669804 1.36403e-20)
(5.33942 0.00752582 0)
(5.3265 0.00842151 -8.8246e-21)
(5.3121 0.00940472 0)
(5.29609 0.010488 1.71728e-20)
(5.27829 0.0116859 0)
(5.25852 0.0130155 1.93207e-21)
(5.23658 0.014496 -2.06953e-21)
(5.21224 0.0161485 -1.26442e-21)
(5.18523 0.0179966 2.79619e-21)
(5.15526 0.0200677 -1.54099e-21)
(5.122 0.0223923 7.26701e-21)
(5.08507 0.0250055 0)
(5.04408 0.0279468 -4.75403e-21)
(4.99847 0.0312649 -1.08236e-20)
(4.9478 0.0349892 -8.09727e-22)
(4.8916 0.0392083 9.00148e-22)
(4.82905 0.043982 -4.68933e-21)
(4.75945 0.0493841 0)
(4.68209 0.0555009 -3.66048e-21)
(4.59608 0.0624403 0)
(4.50041 0.0703197 7.07222e-21)
(4.39401 0.079269 1.81061e-21)
(4.27571 0.0894354 0)
(4.14423 0.100984 -1.18602e-20)
(3.9982 0.114097 1.11832e-20)
(3.83613 0.128978 0)
(3.65647 0.145844 -6.01799e-21)
(3.45758 0.164931 5.6782e-21)
(3.23777 0.186483 3.49647e-21)
(2.99536 0.210752 -6.2384e-21)
(2.72866 0.237976 2.60175e-21)
(2.43617 0.268362 -2.92451e-21)
(2.11633 0.302043 7.12433e-21)
(1.76864 0.338948 0)
(1.3878 0.378524 0)
(0.987559 0.417167 0)
(0.558684 0.438917 0)
(0.116574 0.332339 9.85966e-21)
(5.36139 0.00979399 2.63757e-21)
(5.35125 0.0111304 -9.66375e-21)
(5.3398 0.0125072 3.27552e-20)
(5.32696 0.0139935 -8.30111e-21)
(5.31264 0.0156241 2.34462e-20)
(5.2967 0.0174207 -8.00423e-21)
(5.27899 0.0194069 2.15845e-20)
(5.25933 0.0216114 -1.82203e-21)
(5.2375 0.0240657 1.80309e-20)
(5.21329 0.0268047 -2.39171e-21)
(5.18642 0.0298679 2.55635e-21)
(5.15662 0.0333002 1.57073e-21)
(5.12355 0.0371524 7.00052e-21)
(5.08683 0.0414829 -1.77041e-20)
(5.04609 0.0463555 2.36059e-21)
(5.00077 0.0518531 -2.45177e-21)
(4.95042 0.0580381 -1.54831e-21)
(4.89459 0.0650223 1.71925e-21)
(4.83248 0.072924 -8.89854e-21)
(4.76336 0.0818737 0)
(4.68657 0.0920113 0)
(4.60121 0.103509 -8.57518e-21)
(4.50629 0.116561 -1.34547e-20)
(4.40075 0.131383 3.15593e-21)
(4.28346 0.148218 0)
(4.15315 0.167336 9.89846e-21)
(4.00847 0.189041 -9.1867e-21)
(3.84798 0.213662 5.44135e-21)
(3.67014 0.24156 9.00576e-21)
(3.47337 0.27312 -2.58995e-21)
(3.25601 0.308744 0)
(3.01643 0.348842 0)
(2.75298 0.393812 -9.18838e-21)
(2.4642 0.443996 0)
(2.14849 0.499667 -1.94746e-20)
(1.80535 0.56075 1.15209e-20)
(1.42919 0.626977 -4.40768e-21)
(1.03261 0.692718 -1.34206e-20)
(0.60561 0.730167 3.6553e-21)
(0.145413 0.547138 -8.95729e-21)
(5.36177 0.0136933 1.06024e-20)
(5.35172 0.0155583 -5.88351e-21)
(5.34036 0.0174825 -3.08982e-20)
(5.32761 0.019558 7.81747e-21)
(5.31339 0.0218343 1.33501e-20)
(5.29758 0.0243422 0)
(5.27999 0.0271147 -2.63075e-20)
(5.26046 0.0301914 3.23515e-21)
(5.23879 0.0336163 -1.52811e-20)
(5.21476 0.0374378 0)
(5.18809 0.041711 2.60161e-21)
(5.15851 0.0464983 -5.76495e-21)
(5.1257 0.0518702 -1.00107e-20)
(5.08928 0.0579083 8.62519e-23)
(5.04888 0.0647007 -1.94739e-20)
(5.00395 0.0723639 1.23051e-20)
(4.95405 0.0809914 -1.48098e-21)
(4.89875 0.0907292 1.6432e-21)
(4.83723 0.101744 1.07663e-20)
(4.76879 0.114219 8.00979e-21)
(4.69279 0.128349 0)
(4.60834 0.144371 1.03192e-20)
(4.51448 0.162553 -5.05431e-21)
(4.41016 0.183195 -9.33565e-21)
(4.29429 0.206633 0)
(4.16562 0.233244 2.42257e-21)
(4.02286 0.263443 -2.71987e-21)
(3.86458 0.29769 3.5731e-21)
(3.68932 0.336482 -1.23261e-20)
(3.49551 0.380349 -2.59474e-21)
(3.28158 0.429848 2.89588e-21)
(3.04593 0.485544 1.41915e-20)
(2.78699 0.547995 8.57604e-21)
(2.50331 0.617686 0)
(2.19333 0.695051 1.19759e-20)
(1.85656 0.780101 -1.05623e-20)
(1.48731 0.872838 8.08484e-21)
(1.09694 0.965775 -9.39146e-21)
(0.673594 1.01946 1.2875e-20)
(0.193882 0.759789 -2.35997e-20)
(5.36226 0.0175719 0)
(5.35233 0.0199601 0)
(5.34108 0.0224281 0)
(5.32846 0.0250883 0)
(5.31439 0.0280045 -6.7279e-20)
(5.29871 0.0312174 0)
(5.28129 0.0347692 0)
(5.26195 0.0387102 -3.26678e-21)
(5.24048 0.0430965 3.5136e-21)
(5.21666 0.0479901 -1.22407e-20)
(5.19026 0.0534611 -4.61594e-21)
(5.16097 0.0595892 0)
(5.12849 0.0664643 -2.17269e-20)
(5.09245 0.0741904 1.09603e-20)
(5.05248 0.0828803 3.29937e-20)
(5.00805 0.0926825 -2.46663e-21)
(4.95873 0.10372 2.42171e-20)
(4.90409 0.116176 0)
(4.84334 0.130259 0)
(4.77578 0.146209 -1.01423e-20)
(4.7008 0.164269 -3.27377e-21)
(4.61753 0.18474 -3.23787e-22)
(4.52503 0.207965 4.58269e-21)
(4.4223 0.234324 1.17526e-20)
(4.30826 0.264242 -3.737e-21)
(4.18172 0.298198 4.19898e-21)
(4.04143 0.33672 0)
(3.88601 0.380388 1.27164e-20)
(3.71406 0.429833 0)
(3.52408 0.485725 1.84047e-20)
(3.31455 0.548771 0)
(3.08395 0.619688 -9.92997e-21)
(2.83076 0.699187 -1.93231e-20)
(2.55361 0.787904 4.75829e-21)
(2.25094 0.886449 -5.29333e-21)
(1.92236 0.994952 -1.24449e-20)
(1.56212 1.11362 0)
(1.18039 1.2331 -8.19565e-21)
(0.761915 1.3028 1.11244e-20)
(0.258726 0.968027 1.44761e-20)
(5.36288 0.0214259 -4.68511e-20)
(5.3531 0.0243286 -5.50322e-21)
(5.34199 0.0273341 5.97624e-21)
(5.32952 0.0305722 -7.18216e-21)
(5.31561 0.0341206 3.85622e-21)
(5.30012 0.0380298 4.0838e-20)
(5.2829 0.0423513 0)
(5.26377 0.0471458 0)
(5.24255 0.0524812 0)
(5.21902 0.0584326 1.58535e-20)
(5.19292 0.0650849 1.80676e-20)
(5.16399 0.0725346 0)
(5.13191 0.0808908 2.71413e-20)
(5.09634 0.0902792 -3.32168e-21)
(5.0569 0.100837 -1.58404e-20)
(5.01308 0.112742 -1.79933e-20)
(4.96446 0.126148 -4.15297e-20)
(4.91063 0.14127 0)
(4.85081 0.158363 -1.53932e-20)
(4.78433 0.177717 -1.90999e-20)
(4.71059 0.199625 -3.10939e-21)
(4.62876 0.22445 7.36296e-21)
(4.53793 0.252603 -9.0493e-21)
(4.43714 0.284542 5.31515e-21)
(4.32535 0.32078 0)
(4.20142 0.361891 -1.62504e-20)
(4.06415 0.40851 0)
(3.91223 0.461334 -1.52337e-20)
(3.74431 0.521119 1.40156e-20)
(3.55899 0.588672 -1.32861e-20)
(3.35482 0.66484 2.03818e-20)
(3.13036 0.750485 1.78424e-20)
(2.88416 0.846473 3.59191e-20)
(2.61493 0.953584 0)
(2.32115 1.07261 -5.06642e-21)
(2.00252 1.2038 5.98763e-21)
(1.65331 1.34755 -1.29141e-20)
(1.28252 1.49256 1.56556e-20)
(0.870063 1.57753 -1.01629e-20)
(0.338635 1.16932 -6.3628e-21)
(5.36363 0.0252507 2.67038e-20)
(5.35402 0.0286586 9.96784e-21)
(5.34307 0.0321942 0)
(5.33079 0.036002 -6.82084e-21)
(5.31708 0.0401734 3.78079e-20)
(5.3018 0.0447689 -3.93131e-20)
(5.28481 0.0498489 4.84229e-21)
(5.26595 0.0554842 0)
(5.24502 0.061754 -3.39498e-21)
(5.22181 0.0687464 3.65291e-21)
(5.19609 0.0765606 -1.73774e-20)
(5.16758 0.0853096 1.46163e-20)
(5.13598 0.0951206 2.82603e-20)
(5.10095 0.106141 0)
(5.06214 0.11853 2.99805e-20)
(5.01904 0.132498 1.74041e-20)
(4.97125 0.148222 1.74066e-20)
(4.91836 0.165953 2.34167e-20)
(4.85964 0.185988 2.92346e-20)
(4.79443 0.208665 2.28332e-20)
(4.72216 0.234325 -2.95327e-21)
(4.64203 0.263389 -2.78588e-20)
(4.55317 0.296336 -3.4978e-22)
(4.45466 0.333696 2.56773e-20)
(4.34552 0.376065 -2.51519e-20)
(4.22466 0.424107 1.5563e-20)
(4.09094 0.478558 -4.86072e-21)
(3.94313 0.540227 5.42302e-21)
(3.77997 0.609987 -1.3629e-20)
(3.60012 0.688772 0)
(3.40223 0.777564 -3.32994e-20)
(3.18496 0.877364 -2.84454e-20)
(2.94695 0.989185 -6.65297e-21)
(2.68699 1.11395 -1.15838e-20)
(2.40363 1.25262 -1.97739e-22)
(2.0967 1.40557 1.56878e-20)
(1.76044 1.57336 1.20949e-20)
(1.40278 1.74268 0)
(0.997384 1.84179 1.70696e-20)
(0.432656 1.36166 5.66409e-21)
(5.3645 0.0290412 -7.6455e-20)
(5.35509 0.0329436 9.48159e-21)
(5.34433 0.0370006 5.67355e-21)
(5.33226 0.0413686 3.29525e-22)
(5.31878 0.0461524 -7.04212e-21)
(5.30375 0.0514226 0)
(5.28703 0.0572481 0)
(5.26847 0.0637094 -4.33238e-20)
(5.24788 0.0708967 -3.13513e-20)
(5.22505 0.0789107 -2.16095e-20)
(5.19975 0.0878644 0)
(5.17172 0.0978866 -1.90947e-20)
(5.14068 0.109122 -3.79868e-20)
(5.10628 0.121739 -6.07186e-21)
(5.06818 0.135919 -2.90264e-20)
(5.02592 0.1519 1.64445e-20)
(4.97907 0.169887 0)
(4.92728 0.190159 -2.29294e-20)
(4.86981 0.213057 -1.78808e-20)
(4.80606 0.238964 4.19652e-21)
(4.73547 0.268265 0)
(4.65729 0.301438 3.00394e-20)
(4.57069 0.339023 3.27006e-22)
(4.4748 0.38162 -4.41009e-20)
(4.36868 0.429901 5.19601e-22)
(4.25133 0.484616 -2.86429e-20)
(4.12168 0.546596 0)
(3.97858 0.616751 0)
(3.82084 0.696066 -2.47862e-20)
(3.64725 0.785593 3.88206e-21)
(3.45654 0.886441 1.371e-20)
(3.24747 0.99974 0)
(3.01879 1.12664 2.40345e-20)
(2.76942 1.2682 6.65931e-21)
(2.49795 1.42556 1.22528e-20)
(2.20436 1.59919 -1.82194e-20)
(1.88291 1.78982 -1.0645e-20)
(1.5404 1.982 3.30238e-22)
(1.143 2.09387 -2.35384e-20)
(0.539797 1.54327 1.00342e-20)
(5.36549 0.0327917 5.12324e-22)
(5.35631 0.0371767 0)
(5.34577 0.0417451 -4.19269e-20)
(5.33394 0.0466624 0)
(5.32072 0.0520467 5.48145e-20)
(5.30597 0.0579783 0)
(5.28956 0.0645344 0)
(5.27133 0.0718048 4.17734e-20)
(5.25112 0.0798904 7.76696e-20)
(5.22872 0.0889037 2.09405e-20)
(5.2039 0.0989714 0)
(5.17642 0.110237 3.60689e-20)
(5.146 0.122863 2.10155e-20)
(5.11231 0.137036 0)
(5.07502 0.152961 0)
(5.03369 0.170899 -1.59688e-20)
(4.98791 0.191085 -1.80656e-20)
(4.93734 0.213823 2.83954e-21)
(4.88129 0.239493 -3.23856e-21)
(4.81917 0.268524 0)
(4.75048 0.30134 -2.01749e-20)
(4.67448 0.338473 0)
(4.59041 0.38052 3.01742e-20)
(4.49745 0.428146 1.87912e-20)
(4.39473 0.482092 1.69325e-20)
(4.28132 0.54319 1.08373e-20)
(4.15622 0.612355 -3.9586e-21)
(4.01838 0.690592 0)
(3.86672 0.778988 7.41887e-22)
(3.70011 0.878706 2.73388e-20)
(3.51741 0.990968 2.03649e-20)
(3.3175 1.11703 -4.69027e-21)
(3.09925 1.25817 -2.29462e-20)
(2.86168 1.41556 -5.88717e-22)
(2.6035 1.59052 0)
(2.32485 1.7836 1.74219e-20)
(2.01992 1.99567 0)
(1.69446 2.20903 -4.72085e-21)
(1.30582 2.33205 6.73918e-21)
(0.658921 1.71246 0)
(5.36661 0.0364967 6.97374e-20)
(5.35768 0.0413511 0)
(5.34739 0.0464197 3.00754e-20)
(5.33582 0.051874 5.69812e-20)
(5.32288 0.0578454 -5.37836e-22)
(5.30845 0.0644237 0)
(5.29237 0.0716939 -3.4397e-20)
(5.27453 0.0797545 0)
(5.25474 0.0887168 -4.00213e-20)
(5.23281 0.0987047 4.27759e-22)
(5.20853 0.109858 -7.32302e-21)
(5.18166 0.122334 -5.00506e-21)
(5.15192 0.136312 4.8375e-21)
(5.11902 0.151997 0)
(5.08263 0.169613 3.43558e-21)
(5.04233 0.189448 2.63943e-20)
(4.99773 0.21176 3.48584e-20)
(4.94852 0.23688 -2.05625e-20)
(4.89404 0.265222 2.53427e-20)
(4.83373 0.297259 0)
(4.76711 0.333451 1.95621e-20)
(4.69353 0.374378 0)
(4.61225 0.420693 -2.92045e-20)
(4.52253 0.473116 1.72865e-20)
(4.42355 0.532456 5.52498e-21)
(4.31447 0.599613 1.97615e-20)
(4.19438 0.675583 0)
(4.06232 0.761456 4.76076e-21)
(3.91733 0.858411 1.69108e-20)
(3.75838 0.967709 -9.90677e-22)
(3.58448 1.09068 -1.54857e-20)
(3.39463 1.22868 -4.56339e-21)
(3.18781 1.38312 5.02928e-21)
(2.96321 1.55528 1.0929e-20)
(2.71961 1.74663 -6.26735e-21)
(2.45735 1.95778 -7.53621e-21)
(2.17054 2.18974 -4.26579e-21)
(1.86385 2.42236 1.94663e-20)
(1.48456 2.5547 -5.88082e-21)
(0.788725 1.8677 0)
(5.36785 0.0401504 -6.64605e-20)
(5.35921 0.04546 8.25949e-21)
(5.34917 0.0510167 -3.82826e-20)
(5.33789 0.0569946 -8.79754e-20)
(5.32528 0.0635384 -5.06293e-20)
(5.31118 0.0707472 -5.73555e-20)
(5.29548 0.0787131 8.95698e-21)
(5.27805 0.0875432 -9.25015e-21)
(5.25873 0.0973583 0)
(5.23732 0.108293 0)
(5.21363 0.1205 7.48896e-21)
(5.18742 0.134151 -4.58568e-20)
(5.15844 0.149438 4.25281e-20)
(5.1264 0.166586 0)
(5.09099 0.185837 3.28551e-21)
(5.05182 0.207501 -2.90275e-20)
(5.00851 0.231861 -2.0872e-20)
(4.96078 0.259271 2.52022e-20)
(4.90801 0.290176 -5.7843e-20)
(4.84966 0.325089 3.61556e-21)
(4.78532 0.364505 -4.78754e-21)
(4.71436 0.409047 5.40577e-21)
(4.63612 0.459416 3.55123e-21)
(4.5499 0.516386 -5.32676e-20)
(4.45499 0.580821 -1.96175e-20)
(4.35061 0.653688 0)
(4.23595 0.73605 2.81781e-20)
(4.11016 0.829074 0)
(3.97238 0.934019 -1.46059e-20)
(3.82174 1.05223 -3.02006e-20)
(3.65735 1.18514 0)
(3.47836 1.3342 -4.17943e-21)
(3.28391 1.50091 4.59989e-21)
(3.07332 1.68668 -6.74759e-21)
(2.8455 1.89309 1.24166e-20)
(2.60097 2.12082 1.99083e-20)
(2.33369 2.37096 0)
(2.0473 2.62071 4.14754e-21)
(1.67777 2.76036 -5.09191e-21)
(0.927741 2.0076 0)
(5.36922 0.043747 7.09485e-20)
(5.36088 0.0494966 -8.28164e-21)
(5.35113 0.0555283 -2.72241e-20)
(5.34017 0.0620152 4.23958e-20)
(5.32789 0.0691156 -4.17234e-20)
(5.31417 0.0769372 1.03802e-19)
(5.29887 0.085579 4.01038e-20)
(5.28189 0.0951558 -8.86197e-21)
(5.26307 0.105798 4.69241e-20)
(5.24223 0.117651 -5.84245e-21)
(5.21917 0.130877 0)
(5.19369 0.145662 0)
(5.16553 0.162214 -6.84048e-20)
(5.13442 0.18077 -1.05575e-20)
(5.10008 0.201594 5.8507e-21)
(5.06213 0.225014 3.60961e-21)
(5.02021 0.251337 -3.5371e-20)
(4.97408 0.280938 1.8678e-20)
(4.92314 0.314288 4.6427e-20)
(4.86692 0.351939 0)
(4.80502 0.394414 -1.26182e-20)
(4.73689 0.442378 1.57566e-20)
(4.6619 0.496573 0)
(4.57946 0.557819 3.15869e-20)
(4.4889 0.627032 6.50314e-22)
(4.38956 0.705232 -2.20212e-20)
(4.2807 0.793544 -2.73052e-20)
(4.16162 0.893199 0)
(4.03156 1.00553 8.45239e-22)
(3.88978 1.13195 0)
(3.73555 1.27397 2.50547e-20)
(3.56817 1.43313 -1.4472e-20)
(3.38692 1.61102 4.35994e-21)
(3.19129 1.80914 -6.08565e-21)
(2.98032 2.02919 0)
(2.75472 2.27193 -1.81661e-20)
(2.50824 2.53836 -1.31895e-20)
(2.24324 2.80274 2.10834e-20)
(1.88372 2.94768 -4.19916e-21)
(1.07433 2.13095 5.74042e-21)
(5.37072 0.0472803 0)
(5.3627 0.0534541 -7.94405e-21)
(5.35326 0.0599466 1.86105e-20)
(5.34264 0.0669272 -9.88579e-21)
(5.33073 0.0745672 4.65718e-20)
(5.3174 0.0829829 -6.02053e-20)
(5.30254 0.0922791 3.75779e-20)
(5.28605 0.102578 0)
(5.26776 0.11402 -3.52321e-20)
(5.24753 0.126758 -5.12693e-20)
(5.22516 0.140967 -1.9381e-20)
(5.20044 0.156845 -7.38994e-21)
(5.17316 0.174611 6.54754e-20)
(5.14305 0.19452 4.87616e-21)
(5.10985 0.21685 -6.00515e-21)
(5.07321 0.241948 6.42263e-21)
(5.03278 0.270143 2.68693e-20)
(4.98836 0.301827 -1.38952e-20)
(4.93939 0.337497 -2.23803e-20)
(4.88542 0.377738 3.5192e-21)
(4.82613 0.423099 1.27417e-20)
(4.761 0.474278 -2.03335e-20)
(4.68949 0.532057 2.38132e-20)
(4.61105 0.597292 -2.4889e-20)
(4.52512 0.670945 9.07566e-21)
(4.43111 0.75408 4.96843e-22)
(4.32841 0.847874 6.05093e-21)
(4.21642 0.95361 2.50232e-20)
(4.09452 1.07268 2.651e-20)
(3.96212 1.20656 1.48124e-20)
(3.81862 1.35681 -4.71425e-20)
(3.66349 1.52506 8.56521e-22)
(3.49616 1.71298 0)
(3.31633 1.92211 -2.25406e-20)
(3.12316 2.15429 2.34671e-20)
(2.91753 2.41034 1.64832e-20)
(2.69311 2.69092 5.09812e-21)
(2.45027 2.96757 -1.32199e-20)
(2.10035 3.11561 0)
(1.22666 2.23666 -8.56148e-21)
(5.37235 0.0507442 1.33694e-20)
(5.36467 0.0573256 -7.37239e-20)
(5.35556 0.064264 6.84185e-20)
(5.3453 0.0717222 0)
(5.33378 0.0798841 0)
(5.32087 0.0888735 -5.04754e-20)
(5.30648 0.0988012 -2.93988e-20)
(5.2905 0.109797 0)
(5.27279 0.122007 0)
(5.2532 0.135597 4.45671e-20)
(5.23156 0.150751 1.90524e-20)
(5.20767 0.167675 7.0794e-21)
(5.18132 0.186604 -3.82188e-20)
(5.15228 0.207804 4.66685e-21)
(5.12029 0.23157 2.1828e-20)
(5.08503 0.258262 -2.50221e-20)
(5.04619 0.288235 0)
(5.00358 0.32189 -1.69108e-20)
(4.95669 0.359746 0)
(4.90511 0.402422 0)
(4.84857 0.450484 4.05288e-21)
(4.78661 0.504663 -4.5667e-21)
(4.71875 0.565769 -2.32238e-20)
(4.64453 0.634694 -2.474e-21)
(4.56346 0.712431 2.00463e-20)
(4.47505 0.800084 1.99999e-20)
(4.37882 0.898869 2.86314e-20)
(4.27426 1.01011 -3.46941e-20)
(4.16091 1.13524 -4.1213e-21)
(4.03831 1.27579 -2.794e-20)
(3.90603 1.43337 -3.87362e-21)
(3.7637 1.60965 -1.10029e-20)
(3.61093 1.80636 9.86716e-21)
(3.4476 2.02511 -1.10601e-20)
(3.27304 2.26781 -3.43702e-20)
(3.08825 2.5354 -8.80338e-21)
(2.88691 2.82791 -1.49205e-20)
(2.667 3.11451 -1.0076e-20)
(2.3257 3.26312 -8.92001e-21)
(1.38276 2.32374 1.22027e-20)
(5.3741 0.0541321 -6.23393e-20)
(5.36679 0.0611042 5.76343e-20)
(5.35802 0.0684728 0)
(5.34815 0.0763922 3.70382e-20)
(5.33704 0.0850572 3.68461e-20)
(5.32457 0.094599 5.52262e-20)
(5.31067 0.105134 -5.55085e-20)
(5.29524 0.116798 0)
(5.27814 0.129747 0)
(5.25924 0.144152 -4.18962e-20)
(5.23837 0.160208 0)
(5.21535 0.178132 2.76055e-20)
(5.18999 0.198168 4.15478e-21)
(5.16207 0.220595 -4.46537e-21)
(5.13135 0.245722 -2.68726e-20)
(5.09756 0.273923 5.42713e-20)
(5.06038 0.305572 3.60388e-21)
(5.01968 0.341081 1.26202e-20)
(4.97498 0.380984 0)
(4.9259 0.425931 0)
(4.87225 0.476504 -3.8238e-21)
(4.8136 0.533456 -1.31401e-20)
(4.74956 0.597625 0)
(4.67974 0.669926 2.62401e-20)
(4.60374 0.751379 -4.56326e-20)
(4.52117 0.843117 0)
(4.43165 0.946382 -2.20676e-20)
(4.33482 1.06253 0)
(4.23034 1.19303 0)
(4.11791 1.33943 1.7594e-20)
(3.99725 1.50339 2.52189e-20)
(3.86818 1.6866 -3.71544e-21)
(3.73048 1.89084 -1.61408e-20)
(3.58421 2.11775 1.79001e-20)
(3.42892 2.36929 1.58474e-20)
(3.26569 2.64654 8.51303e-21)
(3.08815 2.94872 8.94008e-21)
(2.89174 3.24278 9.42937e-21)
(2.55776 3.38932 6.09352e-21)
(1.54055 2.39138 5.97451e-21)
(5.37599 0.0574379 4.87624e-20)
(5.36905 0.0647826 0)
(5.36065 0.0725656 0)
(5.35117 0.0809296 -3.6193e-20)
(5.3405 0.090078 -8.20602e-20)
(5.3285 0.10015 0)
(5.31512 0.111266 1.00807e-21)
(5.30026 0.12357 7.9506e-21)
(5.2838 0.137224 -8.61468e-21)
(5.26562 0.152407 8.87743e-22)
(5.24556 0.169322 4.60445e-20)
(5.22346 0.188195 -2.70572e-20)
(5.19913 0.20928 0)
(5.17239 0.232869 4.55881e-21)
(5.14301 0.25928 -4.89331e-21)
(5.11075 0.288897 -4.61845e-20)
(5.07531 0.322117 0)
(5.0366 0.359357 3.04901e-20)
(4.99418 0.401163 -1.85353e-20)
(4.94772 0.448213 1.65467e-20)
(4.89706 0.501097 3.75286e-20)
(4.84187 0.56059 1.30248e-20)
(4.78179 0.627547 1.96429e-20)
(4.71652 0.702901 0)
(4.64577 0.787692 2.92788e-20)
(4.56923 0.883068 1.64426e-20)
(4.48665 0.990292 2.44159e-20)
(4.39778 1.11073 -1.16285e-20)
(4.30243 1.24588 -6.42676e-21)
(4.20045 1.3973 -1.88735e-20)
(4.09173 1.56666 -1.70757e-20)
(3.97627 1.75568 4.46777e-20)
(3.85403 1.96614 1.60438e-20)
(3.72526 2.19973 -1.74703e-20)
(3.58973 2.45839 3.1803e-21)
(3.44856 2.74333 -3.45466e-21)
(3.2953 3.05288 3.25525e-21)
(3.12269 3.3518 -3.64476e-21)
(2.7944 3.49354 -8.00072e-21)
(1.6978 2.43898 1.31922e-21)
(5.37802 0.0606573 -3.43747e-20)
(5.37146 0.0683525 -1.30282e-20)
(5.36343 0.076535 0)
(5.35438 0.0853271 0)
(5.34416 0.0949385 7.16767e-22)
(5.33264 0.105517 -4.47253e-20)
(5.3198 0.117188 7.69128e-21)
(5.30555 0.130101 2.20753e-20)
(5.28976 0.144425 -2.91844e-20)
(5.27233 0.160346 3.46345e-20)
(5.25312 0.178075 -1.10373e-21)
(5.23197 0.197845 0)
(5.20873 0.219921 0)
(5.18321 0.2446 0)
(5.15523 0.272214 0)
(5.12456 0.303155 2.23693e-20)
(5.09093 0.337838 0)
(5.0543 0.376682 -3.37748e-20)
(5.01423 0.420242 2.25263e-20)
(4.97048 0.469221 -1.64672e-20)
(4.92292 0.524213 -2.96325e-20)
(4.87128 0.586007 1.56071e-20)
(4.81529 0.655471 -1.03295e-20)
(4.75472 0.733549 3.30456e-20)
(4.68935 0.821289 -3.22671e-20)
(4.619 0.919849 -1.60932e-20)
(4.54352 1.0305 -1.88828e-20)
(4.46279 1.15461 0)
(4.37677 1.29367 1.27221e-20)
(4.28545 1.44926 2.8027e-20)
(4.18891 1.62303 1.25448e-20)
(4.0873 1.81671 -3.09533e-20)
(3.98079 2.03207 -1.02461e-20)
(3.8698 2.27081 1.836e-20)
(3.75435 2.53485 2.79914e-21)
(3.63559 2.82548 2.66081e-21)
(3.50679 3.14009 -7.77934e-21)
(3.35801 3.44117 0)
(3.03334 3.5753 1.04702e-21)
(1.85221 2.46617 -4.82171e-21)
(5.3802 0.0637894 3.42408e-20)
(5.374 0.0718076 -6.55724e-21)
(5.36637 0.0803738 -5.0752e-20)
(5.35777 0.0895784 0)
(5.348 0.0996314 4.81362e-20)
(5.337 0.110691 -1.53202e-20)
(5.32472 0.12289 6.26916e-20)
(5.31109 0.13638 -4.30307e-20)
(5.296 0.151338 3.67061e-20)
(5.27935 0.167957 -3.23032e-20)
(5.26102 0.186452 -4.33205e-20)
(5.24087 0.207066 0)
(5.21875 0.230069 0)
(5.19451 0.255768 0)
(5.16797 0.284503 -1.80525e-20)
(5.13895 0.31667 -2.05999e-20)
(5.10719 0.352704 2.65881e-20)
(5.07269 0.393023 -3.07201e-20)
(5.03507 0.438184 -1.65287e-20)
(4.99409 0.488915 5.28405e-21)
(4.94972 0.545806 -3.31199e-20)
(4.90173 0.609658 -1.5301e-20)
(4.84992 0.681345 -1.37395e-20)
(4.79415 0.761812 -2.67753e-20)
(4.73428 0.852109 5.83137e-20)
(4.67024 0.953393 -3.51856e-21)
(4.60198 1.06693 -4.29731e-21)
(4.52953 1.19408 2.34354e-20)
(4.45296 1.33632 -1.06574e-20)
(4.37245 1.49521 -1.63403e-20)
(4.28821 1.6724 2.0427e-20)
(4.20059 1.86958 1.25402e-20)
(4.10995 2.08852 0)
(4.01689 2.33087 -9.56866e-21)
(3.92167 2.59853 0)
(3.82546 2.89283 0)
(3.72106 3.21016 8.358e-21)
(3.59582 3.51064 0)
(3.27217 3.63432 0)
(2.00135 2.47275 0)
(5.38257 0.0667728 -5.37906e-20)
(5.37667 0.0751451 0)
(5.36947 0.0840792 1.12705e-19)
(5.36132 0.0936762 -6.35596e-20)
(5.35203 0.10415 0)
(5.34155 0.115666 4.76372e-20)
(5.32985 0.128362 -5.83891e-21)
(5.31687 0.142397 7.03316e-21)
(5.30251 0.157952 -7.62796e-21)
(5.28667 0.175226 7.15606e-20)
(5.26925 0.19444 -4.037e-20)
(5.25012 0.215841 0)
(5.22917 0.239708 -2.63727e-20)
(5.20624 0.266353 3.9568e-21)
(5.1812 0.296124 3.07204e-20)
(5.15387 0.329418 3.47283e-20)
(5.12404 0.36669 -1.76461e-20)
(5.09173 0.408352 3.03389e-20)
(5.0566 0.454959 -3.15974e-21)
(5.01847 0.507261 4.9622e-21)
(4.97736 0.565841 1.79968e-20)
(4.9331 0.631505 0)
(4.88555 0.705126 2.00853e-20)
(4.83465 0.787644 -2.34347e-20)
(4.78036 0.880104 -2.34238e-20)
(4.7227 0.983649 -3.38772e-21)
(4.66175 1.09953 3.75872e-21)
(4.59764 1.22909 -1.83265e-20)
(4.5306 1.37378 1.0453e-20)
(4.46094 1.53512 -1.34864e-20)
(4.38906 1.71473 -1.0029e-20)
(4.31547 1.91426 1.59962e-20)
(4.2407 2.13543 -1.0309e-20)
(4.16558 2.37987 0)
(4.09057 2.6494 4.89328e-21)
(4.01685 2.94534 1.85543e-21)
(3.93655 3.26307 -4.71593e-21)
(3.83416 3.56013 1.36115e-21)
(3.50842 3.67053 -4.06407e-23)
(2.14269 2.45872 -1.0512e-21)
(5.38499 0.0697114 4.2314e-20)
(5.37949 0.07832 -6.10974e-21)
(5.37277 0.0876441 -4.82578e-20)
(5.36505 0.0976165 1.28633e-21)
(5.35623 0.108487 0)
(5.34629 0.120434 -3.9798e-20)
(5.3352 0.133597 0)
(5.32288 0.148143 -6.75267e-21)
(5.30926 0.164257 7.32566e-21)
(5.29426 0.182142 -3.92055e-20)
(5.27778 0.202024 4.45734e-20)
(5.25971 0.224157 0)
(5.23995 0.248823 5.11649e-20)
(5.21837 0.276338 0)
(5.19486 0.307058 -6.26936e-22)
(5.16928 0.341379 -2.42142e-20)
(5.14142 0.379774 5.24187e-21)
(5.11135 0.422643 2.43429e-20)
(5.07877 0.47054 7.13316e-22)
(5.04354 0.524232 0)
(5.00574 0.584289 0)
(4.96525 0.651517 3.29866e-21)
(4.92202 0.726783 -1.5424e-20)
(4.87605 0.811017 1.8646e-20)
(4.82739 0.905245 1.50187e-20)
(4.77616 1.01059 0)
(4.72253 1.12828 0)
(4.66679 1.25962 0)
(4.60928 1.40602 1.69635e-20)
(4.55046 1.56897 8.00213e-21)
(4.49089 1.75002 5.38883e-21)
(4.43125 1.95076 -7.43721e-21)
(4.37226 2.17285 1.23136e-21)
(4.31491 2.41786 3.13749e-21)
(4.25993 2.68754 -6.46885e-21)
(4.20846 2.98312 0)
(4.15166 3.29894 0)
(4.0711 3.58975 0)
(3.73951 3.6841 8.795e-22)
(2.27359 2.42431 -1.99954e-22)
(5.38756 0.0731757 -4.01655e-20)
(5.38215 0.0814605 0)
(5.37616 0.0910584 -6.71346e-21)
(5.36894 0.101392 7.53464e-20)
(5.3606 0.112638 3.84226e-22)
(5.35121 0.124987 2.97492e-20)
(5.34074 0.138588 -3.79785e-20)
(5.3291 0.153609 -6.1674e-21)
(5.31625 0.170242 -2.83862e-20)
(5.30211 0.188694 -3.23756e-20)
(5.28659 0.209195 0)
(5.26961 0.232001 1.55274e-20)
(5.25108 0.257399 -1.88933e-20)
(5.23088 0.285708 -2.36924e-20)
(5.20893 0.31729 -3.54919e-20)
(5.18512 0.352536 0)
(5.15927 0.391937 1.99258e-20)
(5.13148 0.435879 -2.70612e-20)
(5.10149 0.484907 4.14512e-21)
(5.0692 0.539807 0)
(5.03475 0.601129 0)
(4.99808 0.669675 -1.15301e-20)
(4.95919 0.7463 0)
(4.91817 0.831913 -1.58328e-20)
(4.87516 0.927519 -1.98194e-20)
(4.83036 1.03421 1.05412e-20)
(4.78405 1.15318 -1.19879e-20)
(4.73664 1.28569 -3.56512e-21)
(4.68859 1.43309 -1.27579e-20)
(4.64052 1.5968 -2.14024e-21)
(4.59313 1.77832 2.34868e-21)
(4.54726 1.97916 -1.28829e-20)
(4.50382 2.20088 5.65903e-21)
(4.46396 2.44499 2.49516e-21)
(4.42865 2.71312 3.38214e-21)
(4.39898 3.00638 5.2272e-22)
(4.36487 3.31806 -5.36174e-22)
(4.30468 3.59979 -3.2969e-23)
(3.96286 3.67544 0)
(2.39131 2.36996 -1.52236e-21)
(5.39011 0.0762044 3.96387e-20)
(5.38504 0.0846171 5.69994e-21)
(5.37964 0.0943799 -6.22331e-21)
(5.37295 0.105011 0)
(5.36513 0.116598 0)
(5.35631 0.12932 3.68656e-20)
(5.34646 0.143325 4.8574e-20)
(5.33553 0.158787 -1.21528e-20)
(5.32346 0.1759 3.83512e-20)
(5.3102 0.194873 5.9137e-20)
(5.29567 0.21594 -3.5277e-20)
(5.2798 0.239361 -4.61332e-20)
(5.26251 0.265424 -2.01355e-20)
(5.24372 0.294451 4.29609e-21)
(5.22336 0.326807 -3.22122e-21)
(5.20135 0.362874 8.53299e-21)
(5.17754 0.403165 -5.63264e-21)
(5.15207 0.448043 2.84314e-21)
(5.12469 0.498045 2.31605e-20)
(5.09537 0.553971 -4.04636e-21)
(5.06429 0.616348 6.95291e-21)