/*--------------------------------*- C++ -*----------------------------------*\
  =========                 |
  \\      /  F ield         | OpenFOAM: The Open Source CFD Toolbox
   \\    /   O peration     | Website:  https://openfoam.org
    \\  /    A nd           | Version:  13
     \\/     M anipulation  |
\*---------------------------------------------------------------------------*/
FoamFile
{
    format      ascii;
    class       volVectorField;
    location    "286";
    object      wallShearStress;
}
// * * * * * * * * * * * * * * * * * * * * * * * * * * * * * * * * * * * * * //

dimensions      [0 2 -2 0 0 0 0];

internalField   uniform (0 0 0);

boundaryField
{
    above
    {
        type            calculated;
        value           uniform (0 0 0);
    }
    top
    {
        type            calculated;
        value           uniform (0 0 0);
    }
    inlet
    {
        type            calculated;
        value           uniform (0 0 0);
    }
    outlet
    {
        type            calculated;
        value           uniform (0 0 0);
    }
    plate
    {
        type            calculated;
        value           nonuniform List<vector> 
340
(
(-0.183055 -0.0799997 0)
(-0.177487 -0.229655 -7.08518e-21)
(-0.195095 -0.370959 6.43059e-21)
(-0.227279 -0.513768 1.71544e-20)
(-0.270137 -0.654589 -1.03932e-20)
(-0.322634 -0.79106 4.55141e-21)
(-0.384209 -0.921697 -4.05456e-21)
(-0.454238 -1.04529 -7.18899e-21)
(-0.531998 -1.1607 0)
(-0.616664 -1.26691 0)
(-0.707297 -1.36302 0)
(-0.802826 -1.44824 -4.40244e-21)
(-0.902025 -1.52186 6.31455e-21)
(-1.00358 -1.58322 -8.85718e-21)
(-1.10612 -1.63177 -4.53972e-21)
(-1.20819 -1.66714 -1.05106e-21)
(-1.30825 -1.68906 3.40505e-21)
(-1.40468 -1.69743 0)
(-1.49579 -1.69228 6.58626e-22)
(-1.57981 -1.67377 -3.03454e-22)
(-1.65492 -1.64224 1.04443e-21)
(-1.71919 -1.59837 0)
(-1.77025 -1.54246 0)
(-1.80629 -1.4746 5.15715e-21)
(-1.82662 -1.3955 -8.32405e-21)
(-1.8305 -1.30634 6.68832e-21)
(-1.81718 -1.20879 -7.18421e-21)
(-1.78599 -1.10479 3.99372e-21)
(-1.7365 -0.996408 0)
(-1.66874 -0.885724 -9.47684e-21)
(-1.58333 -0.774814 1.01623e-20)
(-1.48148 -0.665746 -1.64484e-20)
(-1.36505 -0.560553 1.7682e-20)
(-1.2365 -0.461171 -3.07397e-22)
(-1.0989 -0.369377 -1.00505e-20)
(-0.955801 -0.286726 3.63817e-21)
(-0.811174 -0.214519 -3.64626e-21)
(-0.669081 -0.153765 1.98122e-21)
(-0.533667 -0.105344 1.07133e-21)
(-0.407425 -0.0688569 5.51997e-22)
(-0.301789 -0.0394184 0)
(-0.223681 -0.0186463 0)
(-0.165453 -0.00855183 0)
(-0.121539 -0.00460582 0)
(-0.0877718 -0.00335698 0)
(-0.0611637 -0.00288033 0)
(-0.0397637 -0.00234788 0)
(-0.0224413 -0.00157314 0)
(-0.00854762 -0.00068021 0)
(0.00239704 0.000126961 0)
(0.0108701 0.000714728 0)
(0.0173577 0.00106988 0)
(0.0222867 0.00125749 0)
(0.0259682 0.00135683 0)
(0.0285955 0.00142581 0)
(0.0302797 0.00148686 0)
(0.0310988 0.0015374 0)
(0.0311285 0.00157038 0)
(0.0304456 0.00158323 0)
(0.0291206 0.00157894 0)
(0.0272105 0.00156537 0)
(0.0247499 0.00154976 0)
(0.0217559 0.0015357 0)
(0.018234 0.00152416 0)
(0.0141874 0.0015143 0)
(0.00962057 0.00150473 0)
(0.00453405 0.00149553 0)
(-0.0010656 0.00148416 0)
(-0.00716345 0.00146977 0)
(-0.0137518 0.00145552 0)
(-0.0208199 0.00143722 0)
(-0.028324 0.00140767 0)
(-0.0361938 0.00136707 0)
(-0.0443592 0.00131784 0)
(-0.0527467 0.00125985 0)
(-0.0612683 0.00119267 0)
(-0.0698254 0.0011176 0)
(-0.0783199 0.00103647 0)
(-0.0866537 0.000950532 0)
(-0.0947276 0.000861235 0)
(-0.102446 0.000770449 0)
(-0.109722 0.000680094 0)
(-0.116482 0.000591975 0)
(-0.122667 0.000507737 0)
(-0.128233 0.000428768 0)
(-0.133156 0.000356044 0)
(-0.137424 0.000290351 0)
(-0.14105 0.000232743 0)
(-0.14406 0.000182254 0)
(-0.146472 0.000137856 0)
(-0.148315 9.99761e-05 0)
(-0.149632 6.82162e-05 0)
(-0.150468 4.20337e-05 0)
(-0.150873 2.08312e-05 0)
(-0.150894 3.84044e-06 0)
(-0.150575 -9.65479e-06 0)
(-0.149955 -2.02129e-05 0)
(-0.149071 -2.83288e-05 0)
(-0.147956 -3.42726e-05 0)
(-0.146647 -3.84255e-05 0)
(-0.145172 -4.12723e-05 0)
(-0.143555 -4.30081e-05 0)
(-0.141819 -4.38014e-05 0)
(-0.139986 -4.39053e-05 0)
(-0.138071 -4.35127e-05 0)
(-0.136087 -4.27846e-05 0)
(-0.134042 -4.18876e-05 0)
(-0.131942 -4.08211e-05 0)
(-0.129796 -3.95412e-05 0)
(-0.127617 -3.80515e-05 0)
(-0.125418 -3.63282e-05 0)
(-0.123216 -3.44469e-05 0)
(-0.121021 -3.25636e-05 0)
(-0.118836 -3.07132e-05 0)
(-0.116667 -2.88532e-05 0)
(-0.114527 -2.69611e-05 0)
(-0.112422 -2.51036e-05 0)
(-0.110359 -2.32914e-05 0)
(-0.108344 -2.15421e-05 0)
(-0.106379 -1.99619e-05 0)
(-0.104499 -1.87112e-05 0)
(-0.102714 -1.77488e-05 0)
(-0.100998 -1.68374e-05 0)
(-0.0993555 -1.58855e-05 0)
(-0.0977943 -1.48716e-05 0)
(-0.0963214 -1.38268e-05 0)
(-0.0949392 -1.28007e-05 0)
(-0.0936461 -1.18165e-05 0)
(-0.0924391 -1.08841e-05 0)
(-0.0913147 -1.00021e-05 0)
(-0.0902696 -9.17773e-06 0)
(-0.0892988 -8.41809e-06 0)
(-0.0883974 -7.7178e-06 0)
(-0.0875608 -7.07151e-06 0)
(-0.086785 -6.46963e-06 0)
(-0.0860667 -5.91324e-06 0)
(-0.0854019 -5.40653e-06 0)
(-0.0847863 -4.94374e-06 0)
(-0.0842161 -4.52125e-06 0)
(-0.0836883 -4.12917e-06 0)
(-0.0832006 -3.76644e-06 0)
(-0.0827499 -3.43613e-06 0)
(-0.0823338 -3.13984e-06 0)
(-0.0819475 -2.88437e-06 0)
(-0.0815873 -2.6527e-06 0)
(-0.0812526 -2.42751e-06 0)
(-0.0809433 -2.21216e-06 0)
(-0.0806585 -2.00955e-06 0)
(-0.0803967 -1.82128e-06 0)
(-0.0801568 -1.64477e-06 0)
(-0.0799379 -1.47661e-06 0)
(-0.0797394 -1.31927e-06 0)
(-0.07956 -1.17349e-06 0)
(-0.079399 -1.03383e-06 0)
(-0.0792559 -9.11877e-07 0)
(-0.0791271 -7.4395e-07 0)
(-0.0790319 -6.28758e-07 0)
(-0.0789281 -5.85585e-07 0)
(-0.0788504 -2.05088e-07 0)
(-0.0788794 5.92797e-07 0)
(-0.0790505 1.39577e-06 0)
(-0.0793282 1.88605e-06 0)
(-0.0796557 2.04057e-06 0)
(-0.0799888 1.97789e-06 0)
(-0.0803037 1.81285e-06 0)
(-0.0805906 1.61474e-06 0)
(-0.0808471 1.41875e-06 0)
(-0.0810744 1.23836e-06 0)
(-0.0812751 1.0781e-06 0)
(-0.081452 9.33403e-07 0)
(-0.0816063 8.36603e-07 0)
(-0.0817526 6.43283e-07 0)
(-0.0818355 6.02812e-07 0)
(-0.0819794 1.07344e-06 0)
(-0.0822512 1.61437e-06 0)
(-0.0825958 1.76594e-06 0)
(-0.082926 1.55272e-06 0)
(-0.0831949 1.19726e-06 0)
(-0.0833939 8.45596e-07 0)
(-0.0835298 5.46129e-07 0)
(-0.083613 3.02633e-07 0)
(-0.0836528 1.07961e-07 0)
(-0.0836572 -4.72792e-08 0)
(-0.0836327 -1.72007e-07 0)
(-0.0835837 -2.75744e-07 0)
(-0.0835138 -3.61114e-07 0)
(-0.0834262 -4.30185e-07 0)
(-0.0833237 -4.8648e-07 0)
(-0.0832087 -5.31369e-07 0)
(-0.0830831 -5.6677e-07 0)
(-0.0829487 -5.95134e-07 0)
(-0.0828067 -6.21226e-07 0)
(-0.0826565 -6.48738e-07 0)
(-0.0824976 -6.73854e-07 0)
(-0.0823315 -6.92318e-07 0)
(-0.0821596 -7.04857e-07 0)
(-0.081983 -7.13284e-07 0)
(-0.0818024 -7.19035e-07 0)
(-0.0816183 -7.23588e-07 0)
(-0.0814309 -7.27028e-07 0)
(-0.0812403 -7.29248e-07 0)
(-0.0810469 -7.30345e-07 0)
(-0.0808509 -7.3046e-07 0)
(-0.0806525 -7.29257e-07 0)
(-0.080452 -7.27934e-07 0)
(-0.0802496 -7.25087e-07 0)
(-0.0800454 -7.22659e-07 0)
(-0.0798395 -7.18976e-07 0)
(-0.079632 -7.15241e-07 0)
(-0.0794234 -7.09449e-07 0)
(-0.0792137 -7.04871e-07 0)
(-0.0790029 -6.99152e-07 0)
(-0.0787911 -6.94115e-07 0)
(-0.0785784 -6.87935e-07 0)
(-0.0783649 -6.82564e-07 0)
(-0.0781505 -6.75665e-07 0)
(-0.0779357 -6.68338e-07 0)
(-0.0777208 -6.60602e-07 0)
(-0.0775056 -6.53369e-07 0)
(-0.0772902 -6.45775e-07 0)
(-0.0770747 -6.38128e-07 0)
(-0.076859 -6.30442e-07 0)
(-0.0766433 -6.23403e-07 0)
(-0.076427 -6.17189e-07 0)
(-0.0762102 -6.10473e-07 0)
(-0.0759933 -6.02503e-07 0)
(-0.0757768 -5.93759e-07 0)
(-0.0755609 -5.84951e-07 0)
(-0.0753455 -5.75543e-07 0)
(-0.0751308 -5.6653e-07 0)
(-0.0749172 -5.56257e-07 0)
(-0.0747046 -5.47511e-07 0)
(-0.0744929 -5.37796e-07 0)
(-0.0742821 -5.29254e-07 0)
(-0.0740723 -5.19767e-07 0)
(-0.0738635 -5.11406e-07 0)
(-0.0736557 -5.01488e-07 0)
(-0.0734493 -4.92686e-07 0)
(-0.0732441 -4.83198e-07 0)
(-0.0730401 -4.75098e-07 0)
(-0.0728372 -4.66134e-07 0)
(-0.0726354 -4.58702e-07 0)
(-0.0724344 -4.50986e-07 0)
(-0.072234 -4.44265e-07 0)
(-0.0720343 -4.37007e-07 0)
(-0.0718354 -4.29901e-07 0)
(-0.0716372 -4.22762e-07 0)
(-0.07144 -4.15537e-07 0)
(-0.0712438 -4.08341e-07 0)
(-0.0710485 -4.01607e-07 0)
(-0.0708539 -3.94823e-07 0)
(-0.0706603 -3.87917e-07 0)
(-0.0704677 -3.81608e-07 0)
(-0.0702756 -3.75805e-07 0)
(-0.0700842 -3.69689e-07 0)
(-0.0698935 -3.63396e-07 0)
(-0.0697039 -3.57034e-07 0)
(-0.0695152 -3.50537e-07 0)
(-0.0693278 -3.43955e-07 0)
(-0.0691414 -3.38072e-07 0)
(-0.068956 -3.31777e-07 0)
(-0.0687713 -3.26942e-07 0)
(-0.0685876 -3.19837e-07 0)
(-0.0684051 -3.15103e-07 0)
(-0.0682238 -3.07801e-07 0)
(-0.0680435 -3.03842e-07 0)
(-0.0678643 -2.96516e-07 0)
(-0.0676861 -2.92724e-07 0)
(-0.0675092 -2.85163e-07 0)
(-0.0673334 -2.82099e-07 0)
(-0.0671587 -2.74722e-07 0)
(-0.0669846 -2.73536e-07 0)
(-0.0668109 -2.66144e-07 0)
(-0.0666375 -2.65078e-07 0)
(-0.066465 -2.5725e-07 0)
(-0.0662936 -2.54298e-07 0)
(-0.0661232 -2.49719e-07 0)
(-0.0659535 -2.45802e-07 0)
(-0.0657844 -2.41473e-07 0)
(-0.0656161 -2.37366e-07 0)
(-0.0654533 -2.33166e-07 0)
(-0.0652946 -2.28951e-07 0)
(-0.065135 -2.24929e-07 0)
(-0.0649747 -2.20717e-07 0)
(-0.0648135 -2.16967e-07 0)
(-0.0646514 -2.12979e-07 0)
(-0.0644884 -2.09233e-07 0)
(-0.0643247 -2.04968e-07 0)
(-0.0641602 -2.01411e-07 0)
(-0.063995 -1.98995e-07 0)
(-0.0638289 -1.91822e-07 0)
(-0.0636619 -1.91298e-07 0)
(-0.0634943 -1.85175e-07 0)
(-0.0633261 -1.83747e-07 0)
(-0.0631573 -1.78209e-07 0)
(-0.0629879 -1.76247e-07 0)
(-0.0628176 -1.71985e-07 0)
(-0.0626464 -1.69441e-07 0)
(-0.0624744 -1.66271e-07 0)
(-0.0623017 -1.62795e-07 0)
(-0.062128 -1.6068e-07 0)
(-0.0619528 -1.56127e-07 0)
(-0.061776 -1.77274e-07 0)
(-0.061557 -1.90032e-07 0)
(-0.0613529 -1.56967e-07 0)
(-0.0611706 -1.41203e-07 0)
(-0.0609976 -1.03308e-07 0)
(-0.0608269 -1.48745e-07 0)
(-0.0606579 -1.22195e-07 0)
(-0.0604887 -1.31326e-07 0)
(-0.0603197 -1.16816e-07 0)
(-0.0601504 -1.26467e-07 0)
(-0.0599817 -1.13243e-07 0)
(-0.0598126 -1.20885e-07 0)
(-0.0596436 -1.1127e-07 0)
(-0.0594744 -1.08678e-07 0)
(-0.059305 -1.05601e-07 0)
(-0.0591357 -1.03688e-07 0)
(-0.0589664 -1.00834e-07 0)
(-0.0587972 -9.91016e-08 0)
(-0.058628 -9.47771e-08 0)
(-0.0584586 -9.517e-08 0)
(-0.0582895 -9.07405e-08 0)
(-0.0581206 -7.61941e-08 0)
(-0.0579511 -9.9098e-08 0)
(-0.0577826 -7.1279e-08 0)
(-0.0576131 -1.036e-07 0)
(-0.057445 -6.30412e-08 0)
(-0.0572758 -1.00502e-07 0)
(-0.057108 -5.77116e-08 0)
(-0.0569388 -9.83438e-08 0)
(-0.0567706 -7.57551e-08 0)
(-0.0566025 -7.16897e-08 0)
(-0.0564337 -7.27331e-08 0)
(-0.0562663 -7.05889e-08 0)
(-0.056093 -6.97791e-08 0)
(-0.0559347 -7.04256e-08 0)
(-0.055725 -5.99967e-08 0)
(-0.0556556 -6.30905e-08 0)
(-0.0553369 -8.14959e-08 0)
)
;
    }
    defaultFaces
    {
        type            empty;
    }
}


// ************************************************************************* //
