#           x wallShearS... wallShearS... wallShearS...
      0.04075     -0.354607    -0.0541377   2.75999e-22
    0.0710455     -0.115029  -2.74055e-05             0
     0.101341    -0.0911464  -9.86852e-06             0
     0.131636    -0.0826869  -3.39287e-06             0
     0.161932    -0.0796339  -1.23309e-06             0
     0.192227     -0.079285   1.74285e-06             0
     0.222523    -0.0814606   9.35001e-07             0
     0.252818    -0.0830796   1.34605e-06             0
     0.283114    -0.0836106  -2.16416e-07             0


     0.313409    -0.0829819  -5.87649e-07             0
     0.343705     -0.082054  -7.09758e-07             0
        0.374     -0.081037  -7.30128e-07             0
     0.404295    -0.0800138  -7.21881e-07             0
     0.434591    -0.0790133  -6.99593e-07             0
     0.464886    -0.0780479  -6.72161e-07             0
     0.495182    -0.0771262  -6.39953e-07             0
     0.525477    -0.0762477   -6.1143e-07             0
     0.555773    -0.0754108  -5.78431e-07             0
     0.586068    -0.0746223  -5.43679e-07             0
     0.616364    -0.0738811   -5.1178e-07             0
     0.646659    -0.0731837  -4.80937e-07             0
     0.676955    -0.0725269  -4.54556e-07             0
      0.70725    -0.0719039  -4.32345e-07             0
     0.737545    -0.0713115  -4.10858e-07             0
     0.767841     -0.070748   -3.9106e-07             0
     0.798136    -0.0702112   -3.7372e-07             0
     0.828432     -0.069698  -3.56792e-07             0
     0.858727    -0.0692083  -3.40151e-07             0
     0.889023    -0.0687408  -3.25377e-07             0


     0.919318    -0.0682933  -3.10795e-07             0
     0.949614     -0.067866  -2.97444e-07             0
     0.979909    -0.0674565  -2.84693e-07             0
       1.0102     -0.067064  -2.73941e-07             0
       1.0405    -0.0666853  -2.64611e-07             0
       1.0708    -0.0663198  -2.54462e-07             0


      1.10109    -0.0659677   -2.4604e-07             0
      1.13139    -0.0656284  -2.37616e-07             0
      1.16168    -0.0652988  -2.29114e-07             0
      1.19198    -0.0649823  -2.21025e-07             0
      1.22227    -0.0646766  -2.13645e-07             0
      1.25257     -0.064381  -2.06492e-07             0
      1.28286    -0.0640952  -2.00522e-07             0
      1.31316    -0.0638185   -1.9325e-07             0
      1.34345    -0.0635498  -1.87601e-07             0
      1.37375    -0.0632896  -1.81968e-07             0
      1.40405    -0.0630369  -1.76575e-07             0
      1.43434    -0.0627914  -1.71896e-07             0
      1.46464    -0.0625517  -1.67688e-07             0
      1.49493    -0.0623188  -1.63415e-07             0
      1.52523    -0.0620909  -1.59369e-07             0
      1.55552    -0.0618673  -1.66561e-07             0
      1.58582    -0.0616208  -1.81455e-07             0
      1.61611    -0.0613748  -1.63374e-07             0
      1.64641    -0.0611585  -1.33486e-07             0
       1.6767    -0.0609608  -1.24954e-07             0
        1.707    -0.0607722  -1.33821e-07             0
       1.7373    -0.0605897  -1.27598e-07             0
      1.76759    -0.0604118  -1.24196e-07             0
      1.79789    -0.0602381   -1.2168e-07             0
      1.82818    -0.0600688  -1.19889e-07             0
      1.85848    -0.0599034  -1.17163e-07             0
      1.88877    -0.0597417  -1.16161e-07             0
      1.91907    -0.0595835  -1.10858e-07             0
      1.94936    -0.0594286  -1.07791e-07             0
      1.97966    -0.0592768  -1.05477e-07             0
      2.00995    -0.0591282  -1.03347e-07             0
      2.04025    -0.0589825  -1.01332e-07             0
      2.07055    -0.0588397  -9.92132e-08             0
      2.10084    -0.0586995  -9.67884e-08             0
      2.13114    -0.0585622  -9.51913e-08             0
      2.16143    -0.0584276   -9.3595e-08             0
      2.19173    -0.0582955  -8.85471e-08             0
      2.22202    -0.0581656  -8.44484e-08             0
      2.25232    -0.0580377  -8.75844e-08             0
      2.28261    -0.0579129  -8.58683e-08             0
      2.31291    -0.0577899  -8.62148e-08             0
       2.3432    -0.0576688  -8.67086e-08             0
       2.3735    -0.0575498  -8.38535e-08             0
       2.4038    -0.0574333   -8.2435e-08             0
      2.43409    -0.0573182  -8.10858e-08             0
      2.46439     -0.057205  -7.93477e-08             0
      2.49468     -0.057094   -7.8472e-08             0
      2.52498    -0.0569842  -8.01046e-08             0
      2.55527     -0.056876  -8.59352e-08             0
      2.58557    -0.0567701  -8.03443e-08             0
      2.61586    -0.0566652  -7.35331e-08             0
      2.64616    -0.0565621  -7.26047e-08             0
      2.67645    -0.0564605  -7.20223e-08             0
      2.70675      -0.05636  -7.16955e-08             0
      2.73705    -0.0562604  -7.08842e-08             0
      2.76734    -0.0561619   -7.0176e-08             0
      2.79764    -0.0560673  -7.01283e-08             0
      2.82793    -0.0559692  -6.89128e-08             0
      2.85823    -0.0558667  -6.61954e-08             0
      2.88852    -0.0557812  -6.39351e-08             0
      2.91882    -0.0557052  -6.19286e-08             0
      2.94911    -0.0556074  -6.61363e-08             0
      2.97941    -0.0555044  -7.18402e-08             0
       3.0097    -0.0411508  -5.56875e-08             0
         3.04    -0.0256465  -3.77702e-08             0
