/*--------------------------------*- C++ -*----------------------------------*\
  =========                 |
  \\      /  F ield         | OpenFOAM: The Open Source CFD Toolbox
   \\    /   O peration     | Website:  https://openfoam.org
    \\  /    A nd           | Version:  13
     \\/     M anipulation  |
\*---------------------------------------------------------------------------*/
FoamFile
{
    format      ascii;
    class       volScalarField;
    location    "276";
    object      k;
}
// * * * * * * * * * * * * * * * * * * * * * * * * * * * * * * * * * * * * * //

dimensions      [0 2 -2 0 0 0 0];

internalField   nonuniform List<scalar> 
26820
(
0.152987
0.145206
0.138893
0.133733
0.129474
0.125925
0.122943
0.152981
0.145188
0.138867
0.133701
0.129437
0.125885
0.122898
0.152967
0.145153
0.138815
0.133637
0.129363
0.125804
0.122809
0.152948
0.1451
0.138737
0.13354
0.129252
0.125684
0.122676
0.152922
0.145029
0.138633
0.133412
0.129105
0.125524
0.1225
0.152889
0.144941
0.138504
0.133253
0.128923
0.125326
0.12228
0.15285
0.144836
0.138351
0.133063
0.128705
0.125089
0.122019
0.152805
0.144714
0.138172
0.132842
0.128452
0.124814
0.121716
0.152753
0.144576
0.137969
0.132592
0.128166
0.124503
0.121373
0.152696
0.144421
0.137743
0.132313
0.127847
0.124156
0.120991
0.152632
0.14425
0.137493
0.132006
0.127495
0.123775
0.120571
0.152563
0.144063
0.137222
0.131672
0.127113
0.123361
0.120115
0.152488
0.143862
0.136928
0.131311
0.126701
0.122914
0.119624
0.152407
0.143646
0.136614
0.130925
0.126261
0.122437
0.119101
0.152321
0.143416
0.136279
0.130514
0.125793
0.12193
0.118545
0.15223
0.143172
0.135925
0.13008
0.1253
0.121396
0.117961
0.152134
0.142915
0.135552
0.129624
0.124781
0.120835
0.117347
0.152032
0.142645
0.135161
0.129146
0.124239
0.120249
0.116707
0.151926
0.142362
0.134752
0.128647
0.123674
0.119636
0.116043
0.151816
0.142068
0.134327
0.128126
0.123087
0.118989
0.115376
0.120294
0.117844
0.115703
0.113827
0.112179
0.11073
0.109457
0.10834
0.107368
0.106532
0.105827
0.105254
0.104823
0.104549
0.104472
0.104541
0.104734
0.10505
0.105496
0.106082
0.106823
0.107736
0.108846
0.110181
0.111777
0.113681
0.115954
0.118671
0.121936
0.125883
0.130702
0.136657
0.144141
0.153773
0.166506
0.184238
0.209281
0.21221
0.0978105
0.0249492
0.120253
0.117808
0.115671
0.113799
0.112154
0.110708
0.109437
0.108323
0.107352
0.106517
0.105813
0.105242
0.104812
0.104538
0.104461
0.104532
0.104726
0.105043
0.105489
0.106075
0.106816
0.10773
0.108839
0.110173
0.111769
0.113673
0.115944
0.11866
0.121922
0.125867
0.130681
0.136631
0.144106
0.153725
0.166431
0.184117
0.209111
0.212147
0.0997253
0.02824
0.120171
0.117735
0.115607
0.113743
0.112104
0.110664
0.109398
0.108288
0.107322
0.10649
0.105788
0.10522
0.104792
0.104519
0.104444
0.104517
0.104713
0.105032
0.10548
0.106068
0.10681
0.107725
0.108836
0.110171
0.111768
0.113673
0.115945
0.118662
0.121924
0.125868
0.130681
0.136629
0.144099
0.153711
0.166406
0.18407
0.209017
0.212103
0.102461
0.0326374
0.120048
0.117626
0.115511
0.113658
0.11203
0.110598
0.109339
0.108236
0.107276
0.106449
0.105752
0.105187
0.104763
0.104494
0.104422
0.104498
0.104698
0.105019
0.10547
0.106061
0.106806
0.107724
0.108838
0.110176
0.111776
0.113684
0.115959
0.118679
0.121944
0.125892
0.130708
0.136658
0.144132
0.153745
0.166448
0.184127
0.209043
0.212051
0.105242
0.037074
0.119885
0.117481
0.115384
0.113546
0.111931
0.110511
0.109262
0.108167
0.107214
0.106394
0.105704
0.105145
0.104725
0.104461
0.104393
0.104474
0.104678
0.105003
0.105458
0.106053
0.106802
0.107724
0.108841
0.110184
0.111788
0.1137
0.11598
0.118704
0.121976
0.125929
0.130753
0.13671
0.144192
0.153814
0.166538
0.184256
0.209149
0.211939
0.107736
0.0411671
0.119683
0.117301
0.115226
0.113407
0.111808
0.110402
0.109165
0.108082
0.107138
0.106327
0.105644
0.105091
0.104678
0.10442
0.104358
0.104444
0.104653
0.104984
0.105444
0.106044
0.106798
0.107724
0.108846
0.110194
0.111803
0.113721
0.116007
0.118739
0.122018
0.12598
0.130813
0.136782
0.144278
0.153916
0.166669
0.184444
0.209316
0.211744
0.109852
0.0448403
0.119441
0.117087
0.115036
0.11324
0.111661
0.110272
0.10905
0.107979
0.107047
0.106246
0.105572
0.105028
0.104622
0.104371
0.104315
0.104409
0.104625
0.104962
0.105428
0.106033
0.106793
0.107725
0.108854
0.110207
0.111823
0.113748
0.116042
0.118782
0.122071
0.126044
0.130891
0.136875
0.14439
0.154052
0.166842
0.184689
0.209533
0.211461
0.111593
0.0481258
0.119161
0.116838
0.114817
0.113047
0.111491
0.110121
0.108917
0.107861
0.106942
0.106152
0.105489
0.104954
0.104557
0.104314
0.104267
0.104368
0.104592
0.104937
0.10541
0.106022
0.106789
0.107728
0.108863
0.110224
0.111847
0.113781
0.116084
0.118835
0.122135
0.126123
0.130985
0.13699
0.144529
0.154222
0.167059
0.184988
0.209793
0.211082
0.112991
0.0510812
0.118844
0.116556
0.114569
0.112828
0.111297
0.10995
0.108765
0.107726
0.106822
0.106045
0.105394
0.10487
0.104483
0.10425
0.104211
0.104322
0.104555
0.104909
0.10539
0.10601
0.106784
0.107731
0.108875
0.110244
0.111877
0.11382
0.116134
0.118897
0.122211
0.126215
0.131097
0.137126
0.144695
0.154425
0.167318
0.185342
0.210091
0.2106
0.114082
0.0537612
0.118491
0.116242
0.114292
0.112584
0.111082
0.109759
0.108595
0.107575
0.106688
0.105926
0.105288
0.104776
0.104401
0.104178
0.10415
0.104272
0.104515
0.104878
0.105368
0.105997
0.10678
0.107736
0.108889
0.110268
0.11191
0.113865
0.116191
0.118968
0.122299
0.126322
0.131227
0.137283
0.144887
0.154663
0.16762
0.18575
0.21042
0.21001
0.1149
0.05621
0.118103
0.115897
0.113987
0.112315
0.110844
0.109549
0.108409
0.107409
0.10654
0.105795
0.105172
0.104673
0.10431
0.104099
0.104082
0.104216
0.104471
0.104845
0.105345
0.105984
0.106777
0.107743
0.108906
0.110295
0.11195
0.113916
0.116257
0.11905
0.122399
0.126443
0.131374
0.137462
0.145107
0.154935
0.167966
0.186212
0.210775
0.209304
0.115471
0.0584626
0.117682
0.115521
0.113656
0.112023
0.110585
0.109319
0.108205
0.107228
0.106379
0.105652
0.105045
0.104561
0.104212
0.104014
0.104009
0.104156
0.104423
0.104809
0.105321
0.105971
0.106775
0.107751
0.108925
0.110327
0.111994
0.113975
0.116331
0.119141
0.122511
0.126579
0.131539
0.137663
0.145354
0.155242
0.168357
0.186731
0.211152
0.20848
0.115818
0.0605463
0.117228
0.115116
0.113298
0.111707
0.110306
0.109072
0.107985
0.107033
0.106206
0.105497
0.104907
0.10444
0.104105
0.103921
0.10393
0.104091
0.104372
0.104771
0.105295
0.105957
0.106773
0.107762
0.108948
0.110363
0.112044
0.11404
0.116413
0.119243
0.122635
0.126731
0.131723
0.137888
0.145629
0.155584
0.168794
0.187307
0.211544
0.207453
0.115943
0.062482
0.116743
0.114684
0.112916
0.111369
0.110007
0.108807
0.10775
0.106824
0.106019
0.105332
0.10476
0.104309
0.103991
0.103822
0.103846
0.104023
0.104318
0.104731
0.105269
0.105944
0.106773
0.107774
0.108974
0.110403
0.1121
0.114113
0.116505
0.119356
0.122773
0.126898
0.131927
0.138136
0.145933
0.155963
0.169278
0.18794
0.211945
0.206106
0.115825
0.0642854
0.116229
0.114225
0.11251
0.111011
0.10969
0.108525
0.107499
0.106601
0.105821
0.105155
0.104603
0.104171
0.103869
0.103717
0.103756
0.10395
0.104262
0.10469
0.105242
0.105931
0.106774
0.10779
0.109004
0.110449
0.112162
0.114193
0.116606
0.119481
0.122925
0.127083
0.13215
0.138408
0.146268
0.15638
0.169812
0.18863
0.212344
0.204464
0.115465
0.0659692
0.115688
0.113741
0.112082
0.110632
0.109354
0.108227
0.107234
0.106365
0.105611
0.104968
0.104437
0.104024
0.103741
0.103605
0.103662
0.103874
0.104203
0.104647
0.105214
0.105919
0.106777
0.107808
0.109039
0.1105
0.112231
0.114282
0.116717
0.119617
0.123092
0.127284
0.132395
0.138706
0.146635
0.156837
0.170397
0.18938
0.212733
0.202566
0.114876
0.0675448
0.11512
0.113233
0.111632
0.110233
0.109001
0.107913
0.106955
0.106116
0.105389
0.104771
0.104263
0.10387
0.103605
0.103489
0.103563
0.103794
0.104142
0.104603
0.105187
0.105908
0.106782
0.107829
0.109077
0.110556
0.112307
0.11438
0.116839
0.119767
0.123273
0.127504
0.132662
0.139031
0.147034
0.157335
0.171035
0.19019
0.213101
0.20044
0.114073
0.0690213
0.114527
0.112704
0.111162
0.109817
0.108632
0.107585
0.106663
0.105856
0.105158
0.104565
0.10408
0.103708
0.103464
0.103367
0.10346
0.103712
0.104079
0.104558
0.10516
0.105898
0.106789
0.107855
0.10912
0.110619
0.112391
0.114487
0.116971
0.119929
0.123471
0.127744
0.132952
0.139385
0.147469
0.157877
0.171731
0.19106
0.213435
0.198105
0.113074
0.0704359
0.113909
0.112151
0.110674
0.109384
0.108247
0.107243
0.106358
0.105585
0.104916
0.10435
0.103889
0.103539
0.103316
0.10324
0.103354
0.103627
0.104015
0.104514
0.105134
0.10589
0.1068
0.107884
0.109169
0.110688
0.112483
0.114603
0.117116
0.120106
0.123685
0.128003
0.133266
0.139768
0.14794
0.158465
0.172486
0.191991
0.213723
0.195569
0.11188
0.0713424
0.113298
0.11158
0.110163
0.108933
0.107848
0.106888
0.106042
0.105302
0.104664
0.104126
0.10369
0.103364
0.103163
0.103108
0.103243
0.10354
0.103949
0.104469
0.105109
0.105885
0.106813
0.107917
0.109223
0.110765
0.112583
0.11473
0.117273
0.120298
0.123918
0.128284
0.133606
0.140182
0.14845
0.159103
0.173304
0.192984
0.213947
0.192838
0.110492
0.0718166
0.112531
0.111052
0.109663
0.108471
0.107434
0.10652
0.105715
0.10501
0.104404
0.103894
0.103484
0.103183
0.103005
0.102972
0.10313
0.103452
0.103884
0.104425
0.105086
0.105882
0.106831
0.107956
0.109284
0.110849
0.112693
0.114869
0.117444
0.120506
0.124169
0.128588
0.133974
0.14063
0.149001
0.159793
0.17419
0.194036
0.214088
0.189909
0.108914
0.0719891
0.111764
0.110472
0.10916
0.108003
0.107009
0.106141
0.105377
0.104709
0.104135
0.103655
0.103272
0.102996
0.102842
0.102833
0.103015
0.103362
0.103818
0.104382
0.105065
0.105882
0.106853
0.108
0.109352
0.110942
0.112813
0.115019
0.117629
0.120731
0.124441
0.128916
0.134371
0.141114
0.149597
0.160539
0.175148
0.195148
0.214122
0.186777
0.107161
0.0719533
0.111018
0.109845
0.108639
0.107531
0.106576
0.10575
0.105029
0.104399
0.103859
0.103409
0.103054
0.102804
0.102675
0.102691
0.102897
0.103271
0.103753
0.104341
0.105046
0.105886
0.10688
0.10805
0.109427
0.111043
0.112944
0.115183
0.117829
0.120974
0.124734
0.12927
0.134799
0.141635
0.15024
0.161346
0.176182
0.196313
0.214021
0.183434
0.105173
0.0718636
0.110286
0.109192
0.108092
0.10705
0.106136
0.105352
0.104672
0.104081
0.103575
0.103156
0.10283
0.102607
0.102503
0.102545
0.102778
0.103181
0.103689
0.104301
0.105031
0.105894
0.106912
0.108107
0.10951
0.111155
0.113086
0.11536
0.118046
0.121236
0.12505
0.129651
0.135261
0.142198
0.150934
0.162217
0.177298
0.197527
0.213753
0.179864
0.102889
0.071829
0.109559
0.108527
0.107523
0.106558
0.105691
0.104946
0.104307
0.103755
0.103285
0.102898
0.102601
0.102406
0.102329
0.102397
0.102657
0.103091
0.103626
0.104265
0.105019
0.105907
0.10695
0.108172
0.109602
0.111277
0.113241
0.115552
0.11828
0.121519
0.125391
0.130062
0.135758
0.142804
0.151682
0.16316
0.178501
0.19878
0.213277
0.17604
0.100301
0.0718448
0.108832
0.107855
0.106938
0.106051
0.105239
0.104535
0.103935
0.103423
0.102988
0.102634
0.102368
0.102201
0.102152
0.102248
0.102536
0.103001
0.103566
0.104232
0.105012
0.105926
0.106995
0.108244
0.109704
0.11141
0.11341
0.11576
0.118533
0.121824
0.125759
0.130505
0.136294
0.143458
0.15249
0.164178
0.179795
0.200056
0.21255
0.171894
0.0975316
0.0718927
0.108101
0.107181
0.106339
0.105532
0.104779
0.104119
0.103558
0.103084
0.102687
0.102366
0.102131
0.101993
0.101972
0.102097
0.102415
0.102914
0.103509
0.104202
0.10501
0.105951
0.107047
0.108326
0.109816
0.111557
0.113593
0.115985
0.118806
0.122154
0.126155
0.130982
0.136871
0.144163
0.153363
0.16528
0.181186
0.201337
0.211527
0.167429
0.0946399
0.0719597
0.107365
0.106505
0.105733
0.105002
0.104311
0.103697
0.103177
0.102741
0.10238
0.102094
0.10189
0.101782
0.101791
0.101946
0.102295
0.102829
0.103455
0.104178
0.105013
0.105982
0.107108
0.108417
0.10994
0.111716
0.113792
0.116229
0.119102
0.122509
0.126582
0.131496
0.137494
0.144924
0.154305
0.166472
0.182676
0.202594
0.210133
0.162701
0.0916525
0.0720365
0.106624
0.105828
0.105122
0.104463
0.103836
0.103271
0.102791
0.102394
0.10207
0.101818
0.101646
0.101569
0.101608
0.101795
0.102177
0.102747
0.103406
0.104158
0.105023
0.106022
0.107178
0.108519
0.110076
0.11189
0.114009
0.116493
0.119421
0.122893
0.127043
0.132051
0.138165
0.145745
0.155324
0.167763
0.184267
0.203818
0.208297
0.157744
0.0885961
0.0721148
0.105879
0.105149
0.104507
0.103918
0.103355
0.10284
0.102402
0.102043
0.101756
0.101539
0.1014
0.101355
0.101425
0.101644
0.10206
0.102669
0.103361
0.104145
0.10504
0.106069
0.107257
0.108632
0.110226
0.11208
0.114244
0.116779
0.119765
0.123307
0.127539
0.132649
0.13889
0.146632
0.156428
0.169161
0.185963
0.205034
0.205802
0.152543
0.0855004
0.0721857
0.10513
0.104469
0.10389
0.103368
0.102868
0.102406
0.10201
0.101689
0.101439
0.101258
0.101153
0.101139
0.101242
0.101494
0.101946
0.102596
0.103323
0.104139
0.105065
0.106127
0.107348
0.108758
0.110391
0.112288
0.114499
0.117088
0.120138
0.123753
0.128076
0.133294
0.139673
0.147592
0.157624
0.170677
0.187816
0.206128
0.202576
0.147081
0.0823968
0.0722381
0.10438
0.103788
0.103273
0.102815
0.102377
0.101967
0.101615
0.101334
0.101121
0.100975
0.100904
0.100924
0.10106
0.101347
0.101836
0.102528
0.103291
0.10414
0.1051
0.106194
0.107451
0.108899
0.110572
0.112514
0.114776
0.117423
0.12054
0.124236
0.128655
0.133992
0.140519
0.148632
0.158921
0.172336
0.189834
0.206989
0.198613
0.141359
0.0793166
0.0722573
0.10363
0.103107
0.102656
0.102261
0.101884
0.101527
0.101219
0.100977
0.100802
0.100692
0.100655
0.100709
0.100879
0.101202
0.101731
0.102468
0.103268
0.104151
0.105144
0.106274
0.107567
0.109054
0.110771
0.11276
0.115076
0.117786
0.120976
0.124758
0.12928
0.134746
0.141436
0.149759
0.160333
0.174165
0.192
0.207489
0.193919
0.135391
0.0762987
0.0722251
0.102881
0.102428
0.102041
0.101707
0.101389
0.101084
0.100822
0.10062
0.100482
0.100408
0.100406
0.100494
0.1007
0.101061
0.101632
0.102415
0.103253
0.104171
0.105199
0.106365
0.107697
0.109226
0.110989
0.113029
0.115403
0.11818
0.121448
0.125322
0.129958
0.135563
0.142429
0.150981
0.161876
0.176192
0.194277
0.207485
0.188508
0.129198
0.0733173
0.072116
0.102134
0.101751
0.101427
0.101154
0.100893
0.100641
0.100424
0.100262
0.100162
0.100124
0.100158
0.100282
0.100524
0.100924
0.101539
0.102372
0.103248
0.104202
0.105267
0.106471
0.107843
0.109416
0.111227
0.113323
0.115758
0.118607
0.121958
0.125934
0.130691
0.136447
0.143506
0.152311
0.163573
0.178444
0.196596
0.206822
0.182423
0.122799
0.0702843
0.0718952
0.101391
0.101077
0.100817
0.100602
0.100398
0.100198
0.100026
0.0999046
0.0998425
0.0998419
0.0999118
0.100072
0.100351
0.100793
0.101454
0.102339
0.103254
0.104245
0.105348
0.106592
0.108007
0.109626
0.111489
0.113642
0.116145
0.11907
0.122512
0.126596
0.131486
0.137407
0.144676
0.153762
0.165455
0.18094
0.198847
0.205339
0.175731
0.11622
0.0672209
0.0715292
0.100652
0.100407
0.10021
0.100054
0.0999052
0.0997557
0.0996286
0.0995484
0.0995247
0.0995612
0.0996678
0.0998648
0.100183
0.100669
0.101379
0.102317
0.103272
0.104301
0.105443
0.106729
0.108189
0.109858
0.111776
0.113991
0.116565
0.119572
0.123113
0.127315
0.132349
0.138451
0.145951
0.155353
0.167557
0.183683
0.200873
0.202861
0.168516
0.109497
0.0641696
0.0709924
0.09992
0.0997419
0.0996085
0.0995098
0.0994148
0.0993151
0.0992331
0.0991941
0.099209
0.099283
0.0994268
0.099662
0.100021
0.100552
0.101314
0.102307
0.103303
0.104372
0.105555
0.106884
0.108392
0.110113
0.11209
0.114372
0.117022
0.120119
0.123766
0.128096
0.133288
0.139588
0.147342
0.15711
0.169923
0.186645
0.202455
0.199247
0.160893
0.102681
0.0611727
0.0702742
0.0991941
0.0990832
0.0990121
0.0989701
0.0989278
0.098877
0.0988398
0.0988421
0.0988961
0.0990081
0.0991898
0.0994643
0.0998661
0.100445
0.101261
0.102311
0.103349
0.104459
0.105684
0.10706
0.108618
0.110395
0.112434
0.114787
0.11752
0.120714
0.124476
0.128946
0.134311
0.140828
0.148864
0.159066
0.172597
0.18975
0.203324
0.194367
0.152845
0.0958379
0.0582699
0.069389
0.0984774
0.0984331
0.0984232
0.0984368
0.0984457
0.0984427
0.0984498
0.0984934
0.0985866
0.0987368
0.0989571
0.0992718
0.0997177
0.100348
0.101222
0.102326
0.103409
0.104561
0.105831
0.107255
0.108866
0.110703
0.112809
0.115239
0.11806
0.121359
0.125247
0.12987
0.135425
0.142179
0.150538
0.16127
0.175609
0.192842
0.203199
0.18833
0.144308
0.0890294
0.0554939
0.0684128
0.151717
0.141892
0.134102
0.127867
0.122811
0.118664
0.115222
0.151717
0.141892
0.134103
0.127867
0.122813
0.11866
0.115236
0.151717
0.141893
0.134105
0.127872
0.122819
0.118669
0.115247
0.151717
0.141894
0.134106
0.127874
0.122823
0.118675
0.115255
0.151717
0.141894
0.134107
0.127876
0.122827
0.118679
0.11526
0.151717
0.141894
0.134108
0.127878
0.122829
0.118683
0.115264
0.151717
0.141894
0.134109
0.127879
0.122831
0.118685
0.115266
0.151717
0.141895
0.134109
0.12788
0.122832
0.118686
0.115267
0.151717
0.141895
0.134109
0.12788
0.122832
0.118685
0.115267
0.151717
0.141894
0.134109
0.127879
0.122831
0.118684
0.115265
0.151717
0.141894
0.134108
0.127879
0.12283
0.118683
0.115263
0.151717
0.141894
0.134108
0.127878
0.122828
0.118681
0.11526
0.151717
0.141894
0.134108
0.127877
0.122827
0.118679
0.115258
0.151717
0.141894
0.134107
0.127876
0.122826
0.118677
0.115255
0.151717
0.141894
0.134107
0.127875
0.122825
0.118675
0.115253
0.151717
0.141893
0.134106
0.127875
0.122823
0.118674
0.115251
0.151717
0.141893
0.134106
0.127874
0.122823
0.118672
0.115249
0.151717
0.141893
0.134106
0.127874
0.122822
0.118671
0.115248
0.151717
0.141893
0.134106
0.127873
0.122821
0.118671
0.115247
0.151717
0.141893
0.134105
0.127873
0.122821
0.11867
0.115246
0.151717
0.141893
0.134105
0.127873
0.122821
0.11867
0.115246
0.151717
0.141893
0.134105
0.127873
0.12282
0.118669
0.115245
0.151717
0.141893
0.134105
0.127873
0.12282
0.118669
0.115245
0.151717
0.141893
0.134105
0.127872
0.12282
0.118669
0.115245
0.151717
0.141893
0.134105
0.127872
0.12282
0.118669
0.115244
0.151717
0.141893
0.134105
0.127872
0.12282
0.118669
0.115244
0.151717
0.141893
0.134105
0.127872
0.12282
0.118669
0.115244
0.151717
0.141893
0.134105
0.127872
0.12282
0.118669
0.115244
0.151717
0.141893
0.134105
0.127872
0.12282
0.118669
0.115244
0.151717
0.141893
0.134105
0.127872
0.12282
0.118669
0.115244
0.151717
0.141893
0.134105
0.127872
0.12282
0.118669
0.115244
0.151717
0.141893
0.134105
0.127872
0.12282
0.118669
0.115243
0.151717
0.141893
0.134105
0.127872
0.12282
0.118669
0.115243
0.151717
0.141893
0.134105
0.127872
0.12282
0.118669
0.115243
0.151717
0.141893
0.134105
0.127872
0.12282
0.118669
0.115243
0.151717
0.141893
0.134105
0.127872
0.12282
0.118669
0.115243
0.151717
0.141893
0.134105
0.127872
0.12282
0.118669
0.115243
0.151717
0.141893
0.134105
0.127872
0.12282
0.118669
0.115243
0.151717
0.141893
0.134105
0.127872
0.12282
0.118669
0.115243
0.151717
0.141893
0.134105
0.127872
0.12282
0.118669
0.115243
0.113323
0.112625
0.111913
0.111181
0.110431
0.109665
0.108885
0.108095
0.107297
0.106493
0.105687
0.104879
0.104072
0.103268
0.102468
0.101673
0.100886
0.100107
0.0993374
0.0985807
0.113303
0.112575
0.111833
0.111077
0.110309
0.109531
0.108744
0.107951
0.107153
0.106352
0.10555
0.104748
0.103947
0.103149
0.102355
0.101567
0.100785
0.100011
0.0992458
0.0984919
0.113315
0.112587
0.111848
0.111095
0.110329
0.109554
0.108769
0.107978
0.107182
0.106381
0.105579
0.104777
0.103976
0.103177
0.102382
0.101592
0.100809
0.100034
0.0992666
0.0985112
0.113322
0.112594
0.111853
0.111099
0.110333
0.109556
0.108771
0.107979
0.107181
0.10638
0.105578
0.104775
0.103973
0.103174
0.102378
0.101588
0.100805
0.100029
0.0992614
0.0985056
0.113327
0.112598
0.111857
0.111102
0.110335
0.109558
0.108773
0.10798
0.107182
0.106381
0.105578
0.104775
0.103973
0.103173
0.102377
0.101587
0.100803
0.100027
0.0992592
0.0985029
0.113331
0.112601
0.111859
0.111104
0.110336
0.109559
0.108772
0.107979
0.107181
0.10638
0.105576
0.104773
0.10397
0.10317
0.102374
0.101584
0.100799
0.100023
0.0992549
0.0984983
0.113333
0.112602
0.111859
0.111103
0.110335
0.109557
0.10877
0.107977
0.107178
0.106376
0.105573
0.104769
0.103966
0.103166
0.10237
0.101579
0.100794
0.100018
0.0992493
0.0984925
0.113333
0.112601
0.111858
0.111101
0.110332
0.109554
0.108766
0.107972
0.107174
0.106371
0.105568
0.104763
0.10396
0.10316
0.102364
0.101573
0.100788
0.100011
0.0992427
0.0984857
0.113332
0.112599
0.111855
0.111097
0.110328
0.109549
0.108761
0.107967
0.107168
0.106365
0.105561
0.104757
0.103954
0.103153
0.102357
0.101566
0.100781
0.100004
0.0992352
0.098478
0.113329
0.112596
0.11185
0.111092
0.110322
0.109543
0.108755
0.10796
0.107161
0.106358
0.105554
0.104749
0.103946
0.103145
0.102349
0.101558
0.100773
0.099996
0.0992274
0.0984701
0.113326
0.112592
0.111846
0.111087
0.110316
0.109536
0.108747
0.107953
0.107153
0.10635
0.105546
0.104741
0.103938
0.103137
0.102341
0.10155
0.100765
0.099988
0.0992194
0.0984621
0.113323
0.112587
0.11184
0.11108
0.110309
0.109529
0.10874
0.107945
0.107145
0.106342
0.105537
0.104733
0.103929
0.103129
0.102333
0.101542
0.100757
0.0999801
0.0992116
0.0984545
0.113319
0.112583
0.111835
0.111074
0.110302
0.109521
0.108732
0.107936
0.107136
0.106333
0.105529
0.104724
0.103921
0.103121
0.102325
0.101534
0.100749
0.0999726
0.0992042
0.0984473
0.113316
0.112578
0.111829
0.111068
0.110295
0.109513
0.108724
0.107928
0.107128
0.106325
0.10552
0.104716
0.103913
0.103113
0.102317
0.101526
0.100742
0.0999656
0.0991975
0.0984408
0.113313
0.112573
0.111823
0.111061
0.110288
0.109506
0.108716
0.10792
0.107119
0.106316
0.105512
0.104707
0.103905
0.103105
0.102309
0.101519
0.100735
0.0999591
0.0991914
0.0984351
0.11331
0.112569
0.111818
0.111055
0.110281
0.109498
0.108707
0.107911
0.107111
0.106307
0.105503
0.104699
0.103897
0.103097
0.102302
0.101512
0.100729
0.0999533
0.099186
0.0984301
0.113307
0.112565
0.111812
0.111048
0.110273
0.10949
0.108699
0.107902
0.107102
0.106299
0.105495
0.104691
0.103889
0.10309
0.102295
0.101506
0.100723
0.099948
0.0991813
0.0984259
0.113305
0.112561
0.111807
0.111041
0.110266
0.109482
0.10869
0.107894
0.107093
0.10629
0.105486
0.104683
0.103881
0.103082
0.102288
0.1015
0.100718
0.0999431
0.0991771
0.0984224
0.113303
0.112557
0.111801
0.111035
0.110258
0.109473
0.108682
0.107885
0.107084
0.106281
0.105477
0.104674
0.103873
0.103075
0.102282
0.101494
0.100712
0.0999387
0.0991735
0.0984195
0.113301
0.112553
0.111795
0.111028
0.11025
0.109464
0.108672
0.107875
0.107074
0.106272
0.105468
0.104666
0.103865
0.103068
0.102275
0.101488
0.100707
0.0999345
0.0991702
0.0984171
0.113299
0.112549
0.111789
0.11102
0.110241
0.109455
0.108662
0.107865
0.107064
0.106262
0.105459
0.104656
0.103856
0.10306
0.102268
0.101482
0.100702
0.0999305
0.0991672
0.0984151
0.113297
0.112544
0.111783
0.111012
0.110232
0.109445
0.108652
0.107854
0.107053
0.106251
0.105448
0.104647
0.103847
0.103052
0.102261
0.101476
0.100697
0.0999265
0.0991643
0.0984133
0.113295
0.11254
0.111776
0.111003
0.110222
0.109434
0.10864
0.107842
0.107041
0.106239
0.105437
0.104636
0.103838
0.103043
0.102253
0.101469
0.100692
0.0999225
0.0991616
0.0984118
0.113293
0.112535
0.111769
0.110994
0.110211
0.109422
0.108627
0.107829
0.107028
0.106226
0.105425
0.104625
0.103827
0.103034
0.102245
0.101462
0.100686
0.0999184
0.0991588
0.0984105
0.113291
0.112529
0.111761
0.110984
0.110199
0.109409
0.108613
0.107815
0.107014
0.106213
0.105412
0.104612
0.103816
0.103024
0.102236
0.101455
0.10068
0.099914
0.099156
0.0984092
0.113289
0.112524
0.111752
0.110972
0.110186
0.109394
0.108598
0.107799
0.106999
0.106197
0.105397
0.104599
0.103804
0.103012
0.102227
0.101447
0.100674
0.0999093
0.0991531
0.098408
0.113287
0.112517
0.111742
0.11096
0.110172
0.109379
0.108582
0.107782
0.106981
0.106181
0.105381
0.104584
0.10379
0.103
0.102216
0.101438
0.100667
0.0999043
0.0991499
0.0984067
0.113284
0.11251
0.111731
0.110946
0.110156
0.109361
0.108563
0.107763
0.106963
0.106162
0.105364
0.104567
0.103775
0.102987
0.102204
0.101428
0.100659
0.0998988
0.0991466
0.0984055
0.113281
0.112502
0.11172
0.110931
0.110139
0.109342
0.108543
0.107742
0.106942
0.106142
0.105344
0.104549
0.103758
0.102972
0.102192
0.101418
0.100651
0.0998928
0.0991429
0.0984042
0.113278
0.112494
0.111707
0.110915
0.110119
0.109321
0.10852
0.10772
0.106919
0.10612
0.105323
0.104529
0.10374
0.102956
0.102178
0.101406
0.100642
0.0998862
0.0991389
0.0984028
0.113275
0.112484
0.111692
0.110897
0.110098
0.109297
0.108496
0.107694
0.106894
0.106095
0.105299
0.104507
0.10372
0.102938
0.102162
0.101393
0.100632
0.0998789
0.0991346
0.0984013
0.113271
0.112474
0.111676
0.110876
0.110074
0.109271
0.108468
0.107666
0.106866
0.106068
0.105273
0.104483
0.103698
0.102918
0.102145
0.101379
0.100621
0.099871
0.0991298
0.0983996
0.113267
0.112463
0.111659
0.110854
0.110048
0.109243
0.108438
0.107635
0.106835
0.106038
0.105244
0.104456
0.103673
0.102896
0.102126
0.101363
0.100608
0.0998622
0.0991245
0.0983978
0.113263
0.11245
0.111639
0.110829
0.11002
0.109211
0.108405
0.107601
0.106801
0.106004
0.105213
0.104426
0.103646
0.102872
0.102105
0.101346
0.100595
0.0998524
0.0991187
0.0983958
0.113258
0.112436
0.111618
0.110802
0.109988
0.109176
0.108368
0.107563
0.106763
0.105968
0.105177
0.104393
0.103616
0.102845
0.102082
0.101327
0.10058
0.0998417
0.0991123
0.0983937
0.113253
0.11242
0.111594
0.110772
0.109953
0.109138
0.108327
0.107522
0.106721
0.105927
0.105139
0.104357
0.103583
0.102816
0.102057
0.101306
0.100563
0.0998299
0.0991052
0.0983913
0.113247
0.112403
0.111568
0.110738
0.109914
0.109095
0.108282
0.107476
0.106675
0.105882
0.105096
0.104317
0.103546
0.102783
0.102029
0.101282
0.100545
0.0998168
0.0990973
0.0983887
0.11324
0.112384
0.111539
0.110702
0.109871
0.109048
0.108233
0.107425
0.106625
0.105833
0.105049
0.104273
0.103506
0.102747
0.101998
0.101257
0.100525
0.0998023
0.0990887
0.0983858
0.113233
0.112363
0.111507
0.110661
0.109824
0.108996
0.108178
0.107369
0.106569
0.105778
0.104996
0.104224
0.103461
0.102707
0.101963
0.101228
0.100503
0.0997862
0.099079
0.0983825
0.113224
0.11234
0.111472
0.110616
0.109772
0.108939
0.108117
0.107307
0.106507
0.105717
0.104939
0.10417
0.103412
0.102664
0.101925
0.101197
0.100478
0.0997687
0.0990686
0.0983791
0.0673443
0.065871
0.0645779
0.0636432
0.0630159
0.0625937
0.062292
0.0620583
0.0618678
0.0617115
0.0615842
0.0614807
0.0613947
0.0613206
0.0612547
0.0611951
0.0611412
0.0610932
0.0610552
0.0610206
0.0609894
0.0609617
0.0609373
0.0609167
0.0608996
0.0608857
0.0608746
0.060866
0.0608597
0.0608553
0.0608523
0.0608504
0.0608492
0.0608483
0.0608474
0.0608461
0.060844
0.0608406
0.0608356
0.0608286
0.0608193
0.0608075
0.060793
0.0607758
0.0607558
0.060733
0.0607076
0.0606797
0.0606495
0.0606173
0.0605834
0.0605479
0.0605113
0.0604738
0.0604359
0.0603979
0.0603602
0.0603224
0.0602849
0.0602479
0.0602114
0.0601756
0.0601406
0.0601066
0.0600734
0.0600412
0.0600098
0.0599795
0.0599502
0.059922
0.059895
0.0598692
0.0598445
0.0598207
0.0597979
0.0597759
0.0597549
0.0597349
0.0597161
0.0596985
0.0530457
0.0511731
0.0497177
0.0486268
0.0478119
0.0471803
0.0466627
0.0462206
0.0458362
0.0454983
0.0451946
0.0449138
0.0446476
0.0443926
0.0441488
0.0439171
0.0436982
0.0434915
0.0432823
0.0430858
0.0429075
0.0427484
0.0426085
0.0424904
0.0423929
0.0423137
0.042251
0.042203
0.0421681
0.0421439
0.0421278
0.0421172
0.0421099
0.0421038
0.0420966
0.0420858
0.0420687
0.0420429
0.0420064
0.0419569
0.0418927
0.0418127
0.0417161
0.0416025
0.041472
0.041325
0.0411623
0.0409849
0.0407942
0.0405919
0.0403795
0.0401584
0.0399309
0.0396989
0.0394645
0.0392293
0.0389934
0.0387588
0.0385266
0.0382977
0.038073
0.0378532
0.0376389
0.0374302
0.0372274
0.0370303
0.036839
0.0366538
0.0364751
0.0363034
0.036139
0.0359818
0.0358312
0.0356866
0.0355475
0.0354138
0.0352858
0.0351643
0.0350498
0.0349426
0.0828194
0.0778103
0.0734017
0.0695779
0.0663074
0.0635437
0.0612306
0.0593064
0.0577066
0.0563684
0.0552332
0.0542501
0.0533766
0.0525834
0.0518528
0.0511769
0.0505527
0.0499793
0.0494515
0.0489689
0.0485327
0.0481437
0.0478014
0.0475076
0.047263
0.0470638
0.0469061
0.0467855
0.0466976
0.0466363
0.0465952
0.0465677
0.0465481
0.0465314
0.0465119
0.046483
0.0464381
0.0463713
0.0462771
0.0461504
0.0459868
0.0457834
0.0455384
0.0452511
0.0449216
0.0445509
0.0441411
0.0436947
0.0432156
0.0427076
0.0421742
0.0416198
0.0410494
0.0404683
0.0398813
0.0392928
0.0387048
0.0381199
0.0375404
0.0369687
0.0364071
0.0358575
0.0353212
0.034799
0.0342909
0.0337971
0.0333176
0.0328533
0.0324052
0.0319746
0.0315621
0.0311675
0.0307895
0.0304263
0.030077
0.0297411
0.0294196
0.0291141
0.0288263
0.0285569
0.136133
0.129206
0.122567
0.11627
0.110348
0.104841
0.0997898
0.09518
0.0909856
0.0872004
0.0838141
0.0808083
0.0781503
0.0758109
0.0737576
0.0719566
0.070375
0.0689827
0.0677526
0.0666629
0.065698
0.0648472
0.0641033
0.0634617
0.0629186
0.0624678
0.0621011
0.0618098
0.0615858
0.0614167
0.0612907
0.0611965
0.0611242
0.0610639
0.0610042
0.0609327
0.0608375
0.0607075
0.0605319
0.0603009
0.0600064
0.0596424
0.0592048
0.0586915
0.0581019
0.0574369
0.0566996
0.0558943
0.0550275
0.054106
0.053136
0.0521254
0.0510839
0.0500213
0.048946
0.0478654
0.0467845
0.0457079
0.0446399
0.043585
0.0425477
0.0415313
0.0405384
0.0395705
0.0386278
0.0377105
0.0368193
0.0359555
0.0351215
0.0343194
0.0335506
0.0328145
0.0321087
0.0314302
0.0307772
0.0301488
0.0295471
0.0289753
0.0284366
0.0279319
0.182205
0.176813
0.171415
0.166007
0.160533
0.154995
0.149439
0.143926
0.138518
0.133256
0.128197
0.123396
0.118892
0.114724
0.110835
0.107227
0.10391
0.100886
0.0981578
0.0957176
0.0935575
0.0916618
0.09001
0.0885801
0.0873506
0.0863011
0.0854126
0.0846676
0.0840517
0.083543
0.0831246
0.0827814
0.0824984
0.082257
0.0820368
0.0818185
0.0815842
0.0813156
0.0809954
0.0806074
0.0801386
0.0795784
0.0789188
0.0781536
0.0772787
0.0762929
0.0751981
0.0739994
0.0727053
0.0713237
0.0698625
0.068335
0.0667561
0.0651397
0.0634971
0.061839
0.0601743
0.0585106
0.0568554
0.0552164
0.0536007
0.0520139
0.0504599
0.0489412
0.0474585
0.0460126
0.0446051
0.0432388
0.0419177
0.0406455
0.0394243
0.0382529
0.0371276
0.0360438
0.0349994
0.0339931
0.033029
0.0321124
0.0312481
0.0304378
0.202175
0.200563
0.19826
0.19538
0.192084
0.188531
0.184853
0.181152