/*--------------------------------*- C++ -*----------------------------------*\
  =========                 |
  \\      /  F ield         | OpenFOAM: The Open Source CFD Toolbox
   \\    /   O peration     | Website:  https://openfoam.org
    \\  /    A nd           | Version:  13
     \\/     M anipulation  |
\*---------------------------------------------------------------------------*/
FoamFile
{
    format      ascii;
    class       volScalarField;
    location    "276";
    object      nut;
}
// * * * * * * * * * * * * * * * * * * * * * * * * * * * * * * * * * * * * * //

dimensions      [0 2 -1 0 0 0 0];

internalField   nonuniform List<scalar> 
26820
(
0.000179582
0.00017883
0.00017819
0.000177647
0.000177184
0.000176788
0.000176447
0.000179581
0.000178828
0.000178187
0.000177643
0.00017718
0.000176783
0.000176442
0.00017958
0.000178825
0.000178182
0.000177636
0.000177171
0.000176774
0.000176432
0.000179578
0.00017882
0.000178174
0.000177626
0.000177159
0.00017676
0.000176417
0.000179576
0.000178813
0.000178163
0.000177612
0.000177143
0.000176742
0.000176396
0.000179573
0.000178804
0.00017815
0.000177595
0.000177123
0.00017672
0.000176371
0.000179569
0.000178794
0.000178134
0.000177575
0.000177099
0.000176693
0.000176341
0.000179565
0.000178782
0.000178116
0.000177551
0.000177071
0.000176662
0.000176306
0.00017956
0.000178768
0.000178095
0.000177524
0.000177039
0.000176626
0.000176266
0.000179555
0.000178753
0.000178071
0.000177494
0.000177004
0.000176586
0.000176221
0.000179549
0.000178736
0.000178046
0.000177461
0.000176965
0.000176543
0.000176172
0.000179542
0.000178718
0.000178017
0.000177425
0.000176922
0.000176495
0.000176118
0.000179535
0.000178698
0.000177987
0.000177386
0.000176876
0.000176443
0.000176061
0.000179528
0.000178676
0.000177954
0.000177344
0.000176826
0.000176388
0.000175999
0.00017952
0.000178653
0.000177919
0.000177299
0.000176774
0.000176329
0.000175933
0.000179511
0.000178629
0.000177882
0.000177252
0.000176718
0.000176267
0.000175863
0.000179502
0.000178603
0.000177843
0.000177202
0.000176659
0.000176201
0.000175789
0.000179493
0.000178577
0.000177802
0.000177149
0.000176597
0.000176132
0.000175712
0.000179483
0.000178548
0.000177758
0.000177094
0.000176532
0.000176058
0.000175632
0.000179472
0.000178519
0.000177713
0.000177036
0.000176464
0.00017598
0.000175556
0.00017614
0.000175851
0.000175595
0.000175369
0.000175171
0.000174998
0.000174849
0.000174723
0.000174622
0.000174545
0.000174495
0.000174478
0.000174508
0.000174604
0.000174826
0.000146872
0.000120019
9.82363e-05
8.04874e-05
6.60061e-05
5.41968e-05
4.45671e-05
3.67129e-05
3.0306e-05
2.50797e-05
2.08168e-05
1.73403e-05
1.45066e-05
1.21987e-05
1.0322e-05
8.80021e-06
7.57234e-06
6.59109e-06
5.82099e-06
5.24032e-06
4.8355e-06
4.63379e-06
4.01544e-06
3.07362e-07
9.26774e-09
0.000176135
0.000175846
0.000175591
0.000175366
0.000175167
0.000174995
0.000174846
0.000174721
0.000174619
0.000174542
0.000174493
0.000174476
0.000174505
0.000174601
0.000174823
0.000147367
0.00012045
9.85897e-05
8.07737e-05
6.62389e-05
5.43871e-05
4.47235e-05
3.6842e-05
3.04131e-05
2.5169e-05
2.08917e-05
1.74038e-05
1.45607e-05
1.22452e-05
1.03624e-05
8.83559e-06
7.60361e-06
6.61888e-06
5.84577e-06
5.26139e-06
4.85143e-06
4.63904e-06
4.00881e-06
3.12335e-07
1.04902e-08
0.000176125
0.000175838
0.000175583
0.000175359
0.000175161
0.000174989
0.000174841
0.000174716
0.000174615
0.000174538
0.000174489
0.000174472
0.000174502
0.000174598
0.00017482
0.000147548
0.000120594
9.87062e-05
8.08698e-05
6.63196e-05
5.44559e-05
4.47827e-05
3.68936e-05
3.04584e-05
2.52091e-05
2.09274e-05
1.74357e-05
1.45894e-05
1.22712e-05
1.0386e-05
8.85716e-06
7.62337e-06
6.63694e-06
5.86201e-06
5.27531e-06
4.86139e-06
4.64038e-06
4.00625e-06
3.20381e-07
1.21237e-08
0.000176111
0.000175824
0.000175571
0.000175348
0.000175152
0.000174981
0.000174833
0.000174709
0.000174609
0.000174533
0.000174484
0.000174468
0.000174498
0.000174595
0.000174817
0.000147601
0.000120638
9.875e-05
8.09138e-05
6.63626e-05
5.44972e-05
4.48221e-05
3.69308e-05
3.04933e-05
2.52416e-05
2.09575e-05
1.74634e-05
1.46149e-05
1.22945e-05
1.04074e-05
8.87672e-06
7.64124e-06
6.65318e-06
5.8764e-06
5.28797e-06
4.87167e-06
4.64555e-06
4.01165e-06
3.28516e-07
1.37717e-08
0.000176092
0.000175807
0.000175556
0.000175334
0.000175139
0.00017497
0.000174823
0.000174701
0.000174601
0.000174526
0.000174478
0.000174463
0.000174493
0.000174591
0.000174814
0.000147834
0.000120844
9.89318e-05
8.10741e-05
6.65035e-05
5.46211e-05
4.4931e-05
3.70264e-05
3.05774e-05
2.53155e-05
2.10226e-05
1.75208e-05
1.46656e-05
1.23394e-05
1.04472e-05
8.91217e-06
7.67289e-06
6.68152e-06
5.90165e-06
5.31083e-06
4.89279e-06
4.66338e-06
4.02882e-06
3.35412e-07
1.52922e-08
0.000176068
0.000175785
0.000175536
0.000175317
0.000175124
0.000174956
0.000174811
0.00017469
0.000174591
0.000174517
0.00017447
0.000174456
0.000174487
0.000174586
0.000174811
0.00014811
0.000121092
9.91516e-05
8.1268e-05
6.66743e-05
5.47714e-05
4.50632e-05
3.71428e-05
3.06797e-05
2.54056e-05
2.11019e-05
1.75907e-05
1.47272e-05
1.23939e-05
1.04955e-05
8.95506e-06
7.71111e-06
6.71576e-06
5.93232e-06
5.33889e-06
4.91954e-06
4.68794e-06
4.05153e-06
3.40684e-07
1.66566e-08
0.000176039
0.000175759
0.000175513
0.000175296
0.000175105
0.000174939
0.000174796
0.000174676
0.00017458
0.000174507
0.000174461
0.000174448
0.00017448
0.000174581
0.000174807
0.000148397
0.000121353
9.93863e-05
8.14778e-05
6.6861e-05
5.49372e-05
4.52102e-05
3.72728e-05
3.07947e-05
2.55072e-05
2.11916e-05
1.76699e-05
1.47972e-05
1.24557e-05
1.05502e-05
9.00364e-06
7.75435e-06
6.75445e-06
5.96705e-06
5.37073e-06
4.95007e-06
4.71692e-06
4.07783e-06
3.44325e-07
1.7877e-08
0.000176006
0.000175729
0.000175486
0.000175272
0.000175084
0.00017492
0.000174779
0.000174661
0.000174566
0.000174495
0.000174451
0.000174439
0.000174473
0.000174575
0.000174802
0.000148717
0.000121644
9.96503e-05
8.17155e-05
6.70738e-05
5.51268e-05
4.53787e-05
3.74222e-05
3.0927e-05
2.56242e-05
2.1295e-05
1.77612e-05
1.48778e-05
1.25269e-05
1.06132e-05
9.05947e-06
7.80398e-06
6.79883e-06
6.00694e-06
5.40737e-06
4.98516e-06
4.75083e-06
4.10849e-06
3.46451e-07
1.89749e-08
0.000175968
0.000175695
0.000175456
0.000175245
0.00017506
0.000174898
0.00017476
0.000174644
0.000174551
0.000174481
0.000174439
0.000174428
0.000174464
0.000174568
0.000174798
0.000149076
0.000121973
9.99482e-05
8.19845e-05
6.73152e-05
5.53425e-05
4.55707e-05
3.75927e-05
3.10781e-05
2.57579e-05
2.14132e-05
1.78656e-05
1.497e-05
1.26084e-05
1.06853e-05
9.12338e-06
7.86082e-06
6.84971e-06
6.05277e-06
5.44957e-06
5.02552e-06
4.79028e-06
4.14447e-06
3.47205e-07
1.99704e-08
0.000175926
0.000175657
0.000175422
0.000175214
0.000175032
0.000174874
0.000174738
0.000174625
0.000174533
0.000174466
0.000174425
0.000174416
0.000174454
0.00017456
0.000174793
0.000149475
0.000122338
0.00010028
8.22842e-05
6.75846e-05
5.55837e-05
4.57858e-05
3.7784e-05
3.12479e-05
2.59084e-05
2.15464e-05
1.79834e-05
1.50741e-05
1.27005e-05
1.07668e-05
9.1957e-06
7.92521e-06
6.90743e-06
6.1049e-06
5.4977e-06
5.07149e-06
4.83562e-06
4.18645e-06
3.46724e-07
2.08801e-08
0.00017588
0.000175615
0.000175384
0.000175181
0.000175002
0.000174847
0.000174714
0.000174603
0.000174515
0.000174449
0.000174411
0.000174404
0.000174443
0.000174552
0.000174787
0.000149914
0.00012274
0.000100645
8.26148e-05
6.78823e-05
5.58507e-05
4.60243e-05
3.79965e-05
3.14367e-05
2.60759e-05
2.16948e-05
1.81148e-05
1.51905e-05
1.28035e-05
1.08581e-05
9.2768e-06
7.99751e-06
6.97237e-06
6.16366e-06
5.55208e-06
5.12333e-06
4.88726e-06
4.23552e-06
3.45131e-07
2.17168e-08
0.000175829
0.000175569
0.000175343
0.000175144
0.00017497
0.000174818
0.000174688
0.00017458
0.000174494
0.000174431
0.000174395
0.00017439
0.000174432
0.000174543
0.000174782
0.000150394
0.00012318
0.000101045
8.29774e-05
6.8209e-05
5.6144e-05
4.62868e-05
3.82306e-05
3.16451e-05
2.62611e-05
2.18591e-05
1.82605e-05
1.53195e-05
1.29179e-05
1.09596e-05
9.36715e-06
8.07819e-06
7.04496e-06
6.22946e-06
5.61306e-06
5.18133e-06
4.94561e-06
4.29337e-06
3.42534e-07
2.24908e-08
0.000175774
0.00017552
0.000175299
0.000175104
0.000174934
0.000174786
0.00017466
0.000174555
0.000174472
0.000174411
0.000174377
0.000174375
0.000174419
0.000174534
0.000174776
0.000150916
0.000123659
0.000101481
8.33726e-05
6.85655e-05
5.64643e-05
4.65737e-05
3.84869e-05
3.18736e-05
2.64644e-05
2.20398e-05
1.84208e-05
1.54618e-05
1.30443e-05
1.10719e-05
9.46724e-06
8.16774e-06
7.12568e-06
6.30281e-06
5.68104e-06
5.24623e-06
5.01115e-06
4.27186e-06
3.3896e-07
2.32099e-08
0.000175716
0.000175466
0.000175251
0.000175062
0.000174896
0.000174753
0.00017463
0.000174528
0.000174448
0.00017439
0.000174359
0.000174359
0.000174406
0.000174524
0.00017477
0.00015148
0.000124177
0.000101953
8.38009e-05
6.89521e-05
5.6812e-05
4.68855e-05
3.87659e-05
3.21226e-05
2.66863e-05
2.22372e-05
1.85964e-05
1.56179e-05
1.31831e-05
1.11955e-05
9.57762e-06
8.26669e-06
7.21505e-06
6.38424e-06
5.75652e-06
5.31913e-06
5.08448e-06
4.11013e-06
3.34364e-07
2.38798e-08
0.000175653
0.00017541
0.0001752
0.000175017
0.000174856
0.000174716
0.000174598
0.000174499
0.000174422
0.000174368
0.000174339
0.000174342
0.000174392
0.000174514
0.000174764
0.000152086
0.000124735
0.000102462
8.42627e-05
6.93692e-05
5.71876e-05
4.72228e-05
3.9068e-05
3.23926e-05
2.69273e-05
2.24521e-05
1.87878e-05
1.57884e-05
1.3335e-05
1.1331e-05
9.69886e-06
8.37561e-06
7.31364e-06
6.47437e-06
5.84016e-06
5.40063e-06
5.16653e-06
3.93992e-06
3.288e-07
2.45052e-08
0.000175587
0.00017535
0.000175147
0.000174969
0.000174813
0.000174678
0.000174563
0.000174469
0.000174395
0.000174344
0.000174318
0.000174324
0.000174377
0.000174503
0.000174758
0.000152735
0.000125332
0.000103007
8.47584e-05
6.98175e-05
5.75917e-05
4.7586e-05
3.93938e-05
3.26843e-05
2.71881e-05
2.2685e-05
1.89957e-05
1.59739e-05
1.35006e-05
1.14791e-05
9.83159e-06
8.49512e-06
7.42206e-06
6.5738e-06
5.93266e-06
5.49116e-06
5.25816e-06
3.7629e-06
3.22357e-07
2.50905e-08
0.000175518
0.000175287
0.00017509
0.000174918
0.000174768
0.000174638
0.000174527
0.000174437
0.000174367
0.000174319
0.000174296
0.000174305
0.000174362
0.000174492
0.000174752
0.000153427
0.00012597
0.00010359
8.52883e-05
7.02972e-05
5.80245e-05
4.79756e-05
3.97438e-05
3.29982e-05
2.74692e-05
2.29366e-05
1.92206e-05
1.6175e-05
1.36805e-05
1.16403e-05
9.9765e-06
8.62593e-06
7.54099e-06
6.68318e-06
6.03473e-06
5.59127e-06
5.36015e-06
3.58067e-06
3.15129e-07
2.5639e-08
0.000175445
0.000175221
0.000175031
0.000174865
0.000174721
0.000174596
0.00017449
0.000174403
0.000174337
0.000174293
0.000174273
0.000174286
0.000174346
0.000174481
0.000174746
0.000154162
0.000126647
0.00010421
8.5853e-05
7.08089e-05
5.84868e-05
4.83922e-05
4.01186e-05
3.33349e-05
2.77714e-05
2.32074e-05
1.94634e-05
1.63925e-05
1.38756e-05
1.18155e-05
1.01344e-05
8.76878e-06
7.67118e-06
6.80322e-06
6.14715e-06
5.70169e-06
5.47353e-06
3.39468e-06
3.07213e-07
2.61645e-08
0.000175369
0.000175151
0.000174969
0.00017481
0.000174671
0.000174551
0.00017445
0.000174368
0.000174306
0.000174265
0.00017425
0.000174266
0.00017433
0.000174469
0.000174741
0.00015494
0.000127366
0.000104867
8.64526e-05
7.13528e-05
5.89788e-05
4.88363e-05
4.05188e-05
3.36951e-05
2.80952e-05
2.34984e-05
1.97247e-05
1.66273e-05
1.40866e-05
1.20056e-05
1.0306e-05
8.9245e-06
7.81347e-06
6.93472e-06
6.27078e-06
5.82333e-06
5.59962e-06
3.20628e-06
2.98664e-07
2.65012e-08
0.000175294
0.00017508
0.000174904
0.000174752
0.00017462
0.000174505
0.000174409
0.000174332
0.000174274
0.000174237
0.000174225
0.000174245
0.000174313
0.000174457
0.000174735
0.000155761
0.000128125
0.000105563
8.70876e-05
7.19295e-05
5.95011e-05
4.93085e-05
4.0945e-05
3.40794e-05
2.84414e-05
2.38102e-05
2.00054e-05
1.688e-05
1.43145e-05
1.22113e-05
1.04923e-05
9.09403e-06
7.96879e-06
7.07859e-06
6.40661e-06
5.95729e-06
5.74009e-06
3.01672e-06
2.89531e-07
2.66774e-08
0.000175198
0.000175014
0.000174841
0.000174693
0.000174566
0.000174458
0.000174367
0.000174294
0.00017424
0.000174208
0.000174199
0.000174223
0.000174296
0.000174446
0.000174731
0.000156626
0.000128925
0.000106297
8.77583e-05
7.25392e-05
6.00541e-05
4.98092e-05
4.13977e-05
3.44885e-05
2.88108e-05
2.41436e-05
2.03063e-05
1.71518e-05
1.45601e-05
1.24338e-05
1.06944e-05
9.27838e-06
8.1382e-06
7.23587e-06
6.55572e-06
6.10478e-06
5.89699e-06
2.82713e-06
2.79852e-07
2.67414e-08
0.000175102
0.00017494
0.000174776
0.000174633
0.000174511
0.000174409
0.000174323
0.000174255
0.000174206
0.000174177
0.000174173
0.000174201
0.000174278
0.000174434
0.000174727
0.000157534
0.000129767
0.00010707
8.84649e-05
7.31824e-05
6.06383e-05
5.0339e-05
4.18777e-05
3.4923e-05
2.92041e-05
2.44995e-05
2.06285e-05
1.74435e-05
1.48246e-05
1.2674e-05
1.09132e-05
9.4787e-06
8.32287e-06
7.40775e-06
6.7194e-06
6.26724e-06
6.07314e-06
2.63889e-06
2.69813e-07
2.67281e-08
0.000175008
0.00017486
0.000174709
0.000174572
0.000174455
0.000174358
0.000174278
0.000174215
0.00017417
0.000174146
0.000174146
0.000174178
0.00017426
0.000174423
0.000174724
0.000158487
0.00013065
0.000107881
8.92079e-05
7.38594e-05
6.1254e-05
5.08984e-05
4.23855e-05
3.53838e-05
2.96221e-05
2.48788e-05
2.09727e-05
1.77562e-05
1.5109e-05
1.29332e-05
1.11502e-05
9.69628e-06
8.52414e-06
7.59557e-06
6.89914e-06
6.44639e-06
6.27223e-06
2.45215e-06
2.58429e-07
2.66948e-08
0.000174915
0.000174777
0.000174638
0.000174509
0.000174398
0.000174306
0.000174231
0.000174174
0.000174134
0.000174114
0.000174119
0.000174155
0.000174242
0.000174412
0.000174722
0.000159483
0.000131575
0.000108732
8.99873e-05
7.45705e-05
6.19018e-05
5.1488e-05
4.29218e-05
3.58716e-05
3.00658e-05
2.52824e-05
2.13402e-05
1.8091e-05
1.54145e-05
1.32126e-05
1.14065e-05
9.93252e-06
8.7435e-06
7.8009e-06
7.09669e-06
6.64432e-06
6.49775e-06
2.26753e-06
2.45156e-07
2.6682e-08
0.000174822
0.000174692
0.000174565
0.000174445
0.00017434
0.000174253
0.000174184
0.000174131
0.000174097
0.000174082
0.000174091
0.000174132
0.000174224
0.000174402
0.000174721
0.000160523
0.000132542
0.000109622
9.08036e-05
7.5316e-05
6.2582e-05
5.21082e-05
4.34872e-05
3.6387e-05
3.05358e-05
2.57113e-05
2.17319e-05
1.84492e-05
1.57425e-05
1.35136e-05
1.16838e-05
1.0189e-05
8.98268e-06
8.02552e-06
7.31417e-06
6.86469e-06
6.75395e-06
2.07903e-06
2.30791e-07
2.66878e-08
0.000174729
0.000174605
0.000174489
0.000174378
0.00017428
0.000174199
0.000174135
0.000174088
0.000174059
0.000174049
0.000174062
0.000174108
0.000174207
0.000174392
0.000174721
0.000161607
0.000133552
0.000110551
9.16568e-05
7.60963e-05
6.3295e-05
5.27595e-05
4.40822e-05
3.69308e-05
3.10332e-05
2.61665e-05
2.2149e-05
1.88318e-05
1.60943e-05
1.38378e-05
1.19836e-05
1.04675e-05
9.24358e-06
8.27154e-06
7.55386e-06
7.11201e-06
7.03951e-06
1.92651e-06
2.15438e-07
2.67056e-08
0.000174635
0.000174518
0.000174411
0.00017431
0.00017422
0.000174145
0.000174086
0.000174044
0.00017402
0.000174015
0.000174033
0.000174084
0.000174189
0.000174383
0.000174724
0.000162737
0.000134604
0.00011152
9.25471e-05
7.69114e-05
6.40411e-05
5.34424e-05
4.47075e-05
3.75038e-05
3.15587e-05
2.6649e-05
2.25926e-05
1.92404e-05
1.64714e-05
1.41868e-05
1.23078e-05
1.077e-05
9.52835e-06
8.54138e-06
7.81849e-06
7.39074e-06
7.35488e-06
1.8101e-06
1.99817e-07
2.67305e-08
0.000174539
0.00017443
0.000174331
0.00017424
0.000174158
0.000174089
0.000174036
0.000174
0.000173981
0.000173981
0.000174004
0.000174061
0.000174172
0.000174375
0.000174728
0.000163911
0.000135699
0.000112529
9.34746e-05
7.77616e-05
6.48206e-05
5.41573e-05
4.53637e-05
3.81067e-05
3.21133e-05
2.71599e-05
2.3064e-05
1.96763e-05
1.68754e-05
1.45623e-05
1.26584e-05
1.10987e-05
9.83934e-06
8.83785e-06
8.11167e-06
7.70033e-06
7.71779e-06
1.70878e-06
1.84662e-07
2.6759e-08
0.000174442
0.000174342
0.000174251
0.000174169
0.000174094
0.000174033
0.000173986
0.000173955
0.000173941
0.000173946
0.000173975
0.000174037
0.000174155
0.000174368
0.000174734
0.000165131
0.000136837
0.000113577
9.44394e-05
7.8647e-05
6.56337e-05
5.49047e-05
4.60513e-05
3.87402e-05
3.26978e-05
2.77003e-05
2.35645e-05
2.0141e-05
1.7308e-05
1.49663e-05
1.30374e-05
1.14559e-05
1.01791e-05
9.16372e-06
8.43662e-06
8.04161e-06
8.16738e-06
1.60907e-06
1.70428e-07
2.67881e-08
0.000174344
0.000174252
0.00017417
0.000174096
0.00017403
0.000173975
0.000173935
0.00017391
0.000173901
0.000173912
0.000173946
0.000174014
0.000174139
0.000174363
0.000174744
0.000166397
0.000138018
0.000114666
9.54413e-05
7.95677e-05
6.64807e-05
5.56847e-05
4.67708e-05
3.94049e-05
3.33132e-05
2.82711e-05
2.40954e-05
2.06359e-05
1.7771e-05
1.54008e-05
1.34473e-05
1.18442e-05
1.05507e-05
9.52179e-06
8.79588e-06
8.42032e-06
8.08881e-06
1.5039e-06
1.57335e-07
2.68145e-08
0.000174245
0.000174162
0.000174089
0.000174023
0.000173965
0.000173917
0.000173883
0.000173864
0.000173861
0.000173877
0.000173917
0.000173991
0.000174124
0.00017436
0.000174756
0.000167712
0.000139243
0.000115793
9.64802e-05
8.05237e-05
6.73617e-05
5.64979e-05
4.75227e-05
4.01016e-05
3.39602e-05
2.88736e-05
2.46579e-05
2.11627e-05
1.82662e-05
1.5868e-05
1.38905e-05
1.22667e-05
1.09574e-05
9.91513e-06
9.19533e-06
8.84095e-06
7.81953e-06
1.39061e-06
1.4546e-07
2.68339e-08
0.000174146
0.000174071
0.000174006
0.00017395
0.0001739
0.000173859
0.000173831
0.000173818
0.000173821
0.000173842
0.000173888
0.000173968
0.00017411
0.000174358
0.000174771
0.000169077
0.000140511
0.00011696
9.7556e-05
8.15148e-05
6.82768e-05
5.73443e-05
4.83074e-05
4.08309e-05
3.46398e-05
2.95087e-05
2.52534e-05
2.17231e-05
1.87956e-05
1.63703e-05
1.43697e-05
1.27267e-05
1.14025e-05
1.0349e-05
9.63908e-06
9.31411e-06
7.58863e-06
1.27005e-06
1.34806e-07
2.68411e-08
0.000174045
0.00017398
0.000173924
0.000173876
0.000173834
0.0001738
0.000173779
0.000173772
0.00017378
0.000173808
0.000173859
0.000173946
0.000174098
0.000174359
0.000174791
0.000170495
0.000141821
0.000118165
9.86683e-05
8.25411e-05
6.92261e-05
5.82243e-05
4.91253e-05
4.15933e-05
3.53527e-05
3.01776e-05
2.58834e-05
2.23185e-05
1.93611e-05
1.691e-05
1.48881e-05
1.3228e-05
1.189e-05
1.08284e-05
1.01303e-05
9.86216e-06
7.34494e-06
1.14551e-06
1.25355e-07
2.68291e-08
0.000173944
0.000173888
0.000173841
0.000173801
0.000173767
0.000173741
0.000173726
0.000173725
0.00017374
0.000173773
0.000173831
0.000173925
0.000174086
0.000174363
0.000174815
0.000171966
0.000143171
0.000119408
9.98167e-05
8.36024e-05
7.02094e-05
5.91379e-05
4.99767e-05
4.23895e-05
3.60998e-05
3.08812e-05
2.65487e-05
2.29507e-05
1.99648e-05
1.749e-05
1.5449e-05
1.37745e-05
1.24246e-05
1.13579e-05
1.06721e-05
1.05289e-05
7.02859e-06
1.02143e-06
1.16969e-07
2.67886e-08
0.000173843
0.000173796
0.000173758
0.000173727
0.0001737
0.000173682
0.000173674
0.000173679
0.0001737
0.000173739
0.000173803
0.000173905
0.000174077
0.00017437
0.000174844
0.000173512
0.00014456
0.000120686
0.000101001
8.46987e-05
7.1227e-05
6.00854e-05
5.08619e-05
4.32196e-05
3.68813e-05
3.16203e-05
2.72509e-05
2.36215e-05
2.06096e-05
1.81137e-05
1.60561e-05
1.43705e-05
1.30113e-05
1.19403e-05
1.12702e-05
1.14005e-05
6.58348e-06
9.02181e-07
1.09427e-07
2.67066e-08
0.000173742
0.000173704
0.000173675
0.000173652
0.000173634
0.000173622
0.000173621
0.000173633
0.00017366
0.000173706
0.000173776
0.000173886
0.00017407
0.000174381
0.000174879
0.000175151
0.00014599
0.000121998
0.000102221
8.58288e-05
7.22773e-05
6.10654e-05
5.178e-05
4.40833e-05
3.76977e-05
3.2396e-05
2.7992e-05
2.43334e-05
2.12976e-05
1.87833e-05
1.67125e-05
1.50202e-05
1.36549e-05
1.25776e-05
1.19399e-05
1.26416e-05
5.98056e-06
7.91334e-07
1.02692e-07
2.65706e-08
0.000173641
0.000173612
0.000173592
0.000173578
0.000173567
0.000173563
0.000173569
0.000173587
0.000173621
0.000173673
0.00017375
0.000173869
0.000174065
0.000174396
0.000174921
0.000175583
0.000147474
0.000123355
0.000103481
8.69967e-05
7.33642e-05
6.20817e-05
5.27348e-05
4.4985e-05
3.85534e-05
3.32121e-05
2.87748e-05
2.50887e-05
2.20311e-05
1.9502e-05
1.74232e-05
1.57293e-05
1.43598e-05
1.32731e-05
1.27133e-05
1.46677e-05
5.23968e-06
6.91263e-07
9.67603e-08
2.63712e-08
0.00017354
0.000173521
0.00017351
0.000173503
0.000173501
0.000173504
0.000173517
0.000173542
0.000173582
0.000173641
0.000173725
0.000173853
0.000174063
0.000174416
0.000174971
0.00017566
0.000148972
0.00012473
0.000104755
8.81803e-05
7.44701e-05
6.31203e-05
5.37146e-05
4.59143e-05
3.94392e-05
3.40608e-05
2.95929e-05
2.58827e-05
2.28079e-05
2.02695e-05
1.81901e-05
1.64997e-05
1.51215e-05
1.40242e-05
1.36576e-05
1.85982e-05
4.4311e-06
6.03128e-07
9.16297e-08
2.61044e-08
0.000173439
0.00017343
0.000173428
0.00017343
0.000173435
0.000173446
0.000173466
0.000173497
0.000173544
0.000173609
0.000173701
0.00017384
0.000174065
0.000174443
0.000175029
0.000175744
0.000150617
0.000126236
0.000106131
8.94524e-05
7.56529e-05
6.42277e-05
5.4757e-05
4.69018e-05
4.03803e-05
3.49639e-05
3.04658e-05
2.67334e-05
2.36442e-05
2.11015e-05
1.90288e-05
1.73425e-05
1.59389e-05
1.48547e-05
1.48975e-05
1.87733e-05
3.63503e-06
5.27163e-07
8.72948e-08
2.57756e-08
0.000173339
0.000173339
0.000173346
0.000173356
0.000173369
0.000173388
0.000173415
0.000173453
0.000173507
0.000173579
0.000173679
0.000173828
0.000174071
0.000174476
0.000175097
0.000175832
0.000152388
0.000127858
0.000107606
9.08069e-05
7.69054e-05
6.53931e-05
5.58485e-05
4.79313e-05
4.13584e-05
3.59004e-05
3.137e-05
2.76147e-05
2.45124e-05
2.19692e-05
1.99088e-05
1.82199e-05
1.67649e-05
1.57634e-05
1.66768e-05
1.64075e-05
2.91222e-06
4.62421e-07
8.37114e-08
2.54128e-08
0.000179463
0.000178501
0.00017769
0.000177008
0.000176432
0.000175944
0.000175529
0.000179463
0.000178501
0.00017769
0.000177008
0.000176433
0.000175945
0.000175531
0.000179463
0.000178502
0.00017769
0.000177009
0.000176434
0.000175946
0.000175533
0.000179463
0.000178502
0.000177691
0.000177009
0.000176434
0.000175947
0.000175533
0.000179463
0.000178502
0.000177691
0.000177009
0.000176435
0.000175947
0.000175534
0.000179463
0.000178502
0.000177691
0.00017701
0.000176435
0.000175947
0.000175534
0.000179463
0.000178502
0.000177691
0.00017701
0.000176435
0.000175948
0.000175534
0.000179463
0.000178502
0.000177691
0.00017701
0.000176435
0.000175948
0.000175534
0.000179463
0.000178502
0.000177691
0.00017701
0.000176435
0.000175947
0.000175534
0.000179463
0.000178502
0.000177691
0.00017701
0.000176435
0.000175947
0.000175534
0.000179463
0.000178502
0.000177691
0.00017701
0.000176435
0.000175947
0.000175533
0.000179463
0.000178502
0.000177691
0.000177009
0.000176435
0.000175947
0.000175533
0.000179463
0.000178502
0.000177691
0.000177009
0.000176435
0.000175946
0.000175533
0.000179463
0.000178502
0.00017769
0.000177009
0.000176434
0.000175946
0.000175532
0.000179463
0.000178502
0.00017769
0.000177009
0.000176434
0.000175946
0.000175532
0.000179463
0.000178502
0.00017769
0.000177009
0.000176434
0.000175945
0.000175532
0.000179463
0.000178501
0.00017769
0.000177009
0.000176434
0.000175945
0.000175531
0.000179463
0.000178501
0.00017769
0.000177009
0.000176434
0.000175945
0.000175531
0.000179463
0.000178501
0.00017769
0.000177009
0.000176434
0.000175945
0.000175531
0.000179463
0.000178501
0.00017769
0.000177009
0.000176434
0.000175945
0.000175531
0.000179463
0.000178501
0.00017769
0.000177009
0.000176434
0.000175945
0.000175531
0.000179463
0.000178501
0.00017769
0.000177009
0.000176434
0.000175945
0.000175531
0.000179463
0.000178501
0.00017769
0.000177009
0.000176434
0.000175945
0.000175531
0.000179463
0.000178501
0.00017769
0.000177009
0.000176434
0.000175945
0.000175531
0.000179463
0.000178501
0.00017769
0.000177009
0.000176434
0.000175945
0.000175531
0.000179463
0.000178501
0.00017769
0.000177009
0.000176433
0.000175945
0.000175531
0.000179463
0.000178501
0.00017769
0.000177009
0.000176433
0.000175945
0.000175531
0.000179463
0.000178501
0.00017769
0.000177009
0.000176433
0.000175945
0.000175531
0.000179463
0.000178501
0.00017769
0.000177009
0.000176433
0.000175945
0.000175531
0.000179463
0.000178501
0.00017769
0.000177009
0.000176433
0.000175945
0.000175531
0.000179463
0.000178501
0.00017769
0.000177009
0.000176433
0.000175945
0.000175531
0.000179463
0.000178501
0.00017769
0.000177009
0.000176433
0.000175945
0.000175531
0.000179463
0.000178501
0.00017769
0.000177009
0.000176433
0.000175945
0.00017553
0.000179463
0.000178501
0.00017769
0.000177009
0.000176433
0.000175945
0.00017553
0.000179463
0.000178501
0.00017769
0.000177009
0.000176433
0.000175945
0.00017553
0.000179463
0.000178501
0.00017769
0.000177009
0.000176433
0.000175945
0.00017553
0.000179463
0.000178501
0.00017769
0.000177009
0.000176433
0.000175945
0.00017553
0.000179463
0.000178501
0.00017769
0.000177009
0.000176433
0.000175945
0.00017553
0.000179463
0.000178501
0.00017769
0.000177009
0.000176433
0.000175945
0.00017553
0.000179463
0.000178501
0.00017769
0.000177009
0.000176433
0.000175945
0.00017553
0.000175292
0.000175205
0.000175116
0.000175024
0.000174929
0.000174831
0.000174731
0.000174629
0.000174525
0.00017442
0.000174314
0.000174207
0.000174099
0.000173991
0.000173883
0.000173775
0.000173667
0.00017356
0.000173453
0.000173347
0.000175291
0.000175201
0.000175108
0.000175013
0.000174915
0.000174816
0.000174715
0.000174613
0.000174509
0.000174404
0.000174298
0.000174192
0.000174085
0.000173978
0.00017387
0.000173763
0.000173655
0.000173548
0.000173442
0.000173336
0.000175292
0.000175201
0.000175109
0.000175014
0.000174917
0.000174817
0.000174717
0.000174614
0.000174511
0.000174406
0.0001743
0.000174193
0.000174086
0.000173978
0.000173871
0.000173763
0.000173655
0.000173548
0.000173441
0.000173335
0.000175293
0.000175202
0.000175109
0.000175014
0.000174917
0.000174818
0.000174717
0.000174614
0.00017451
0.000174405
0.000174299
0.000174192
0.000174085
0.000173977
0.000173869
0.000173761
0.000173654
0.000173546
0.000173439
0.000173333
0.000175293
0.000175202
0.000175109
0.000175014
0.000174917
0.000174817
0.000174716
0.000174614
0.00017451
0.000174405
0.000174299
0.000174192
0.000174084
0.000173977
0.000173869
0.000173761
0.000173653
0.000173545
0.000173438
0.000173331
0.000175294
0.000175203
0.000175109
0.000175014
0.000174917
0.000174817
0.000174716
0.000174613
0.000174509
0.000174404
0.000174298
0.000174191
0.000174084
0.000173976
0.000173868
0.000173759
0.000173651
0.000173544
0.000173436
0.00017333
0.000175294
0.000175202
0.000175109
0.000175014
0.000174916
0.000174817
0.000174716
0.000174613
0.000174509
0.000174403
0.000174297
0.00017419
0.000174083
0.000173975
0.000173866
0.000173758
0.00017365
0.000173542
0.000173435
0.000173328
0.000175294
0.000175202
0.000175109
0.000175013
0.000174916
0.000174816
0.000174715
0.000174612
0.000174508
0.000174402
0.000174296
0.000174189
0.000174081
0.000173973
0.000173865
0.000173757
0.000173649
0.000173541
0.000173433
0.000173327
0.000175293
0.000175202
0.000175108
0.000175013
0.000174915
0.000174815
0.000174714
0.000174611
0.000174507
0.000174401
0.000174295
0.000174188
0.00017408
0.000173972
0.000173864
0.000173755
0.000173647
0.000173539
0.000173432
0.000173325
0.000175293
0.000175201
0.000175108
0.000175012
0.000174914
0.000174814
0.000174713
0.00017461
0.000174506
0.0001744
0.000174294
0.000174187
0.000174079
0.000173971
0.000173862
0.000173754
0.000173646
0.000173538
0.00017343
0.000173324
0.000175292
0.0001752
0.000175107
0.000175011
0.000174913
0.000174813
0.000174712
0.000174609
0.000174504
0.000174399
0.000174292
0.000174185
0.000174078
0.000173969
0.000173861
0.000173753
0.000173644
0.000173536
0.000173429
0.000173322
0.000175292
0.0001752
0.000175106
0.00017501
0.000174912
0.000174812
0.000174711
0.000174607
0.000174503
0.000174398
0.000174291
0.000174184
0.000174076
0.000173968
0.00017386
0.000173751
0.000173643
0.000173535
0.000173427
0.000173321
0.000175291
0.000175199
0.000175105
0.000175009
0.000174911
0.000174811
0.000174709
0.000174606
0.000174502
0.000174396
0.00017429
0.000174183
0.000174075
0.000173967
0.000173858
0.00017375
0.000173642
0.000173534
0.000173426
0.000173319
0.000175291
0.000175198
0.000175104
0.000175008
0.00017491
0.00017481
0.000174708
0.000174605
0.000174501
0.000174395
0.000174289
0.000174181
0.000174074
0.000173966
0.000173857
0.000173749
0.000173641
0.000173533
0.000173425
0.000173318
0.00017529
0.000175198
0.000175103
0.000175007
0.000174909
0.000174809
0.000174707
0.000174604
0.000174499
0.000174394
0.000174287
0.00017418
0.000174072
0.000173964
0.000173856
0.000173748
0.000173639
0.000173532
0.000173424
0.000173317
0.00017529
0.000175197
0.000175103
0.000175006
0.000174908
0.000174808
0.000174706
0.000174603
0.000174498
0.000174393
0.000174286
0.000174179
0.000174071
0.000173963
0.000173855
0.000173747
0.000173639
0.000173531
0.000173423
0.000173317
0.000175289
0.000175197
0.000175102
0.000175005
0.000174907
0.000174807
0.000174705
0.000174602
0.000174497
0.000174391
0.000174285
0.000174178
0.00017407
0.000173962
0.000173854
0.000173746
0.000173638
0.00017353
0.000173423
0.000173316
0.000175289
0.000175196
0.000175101
0.000175005
0.000174906
0.000174806
0.000174704
0.0001746
0.000174496
0.00017439
0.000174284
0.000174177
0.000174069
0.000173961
0.000173853
0.000173745
0.000173637
0.000173529
0.000173422
0.000173315
0.000175289
0.000175196
0.000175101
0.000175004
0.000174905
0.000174805
0.000174703
0.000174599
0.000174495
0.000174389
0.000174283
0.000174176
0.000174068
0.00017396
0.000173852
0.000173744
0.000173636
0.000173529
0.000173421
0.000173315
0.000175289
0.000175195
0.0001751
0.000175003
0.000174904
0.000174803
0.000174701
0.000174598
0.000174493
0.000174388
0.000174281
0.000174174
0.000174067
0.000173959
0.000173851
0.000173743
0.000173635
0.000173528
0.000173421
0.000173315
0.000175288
0.000175194
0.000175099
0.000175002
0.000174903
0.000174802
0.0001747
0.000174597
0.000174492
0.000174386
0.00017428
0.000174173
0.000174066
0.000173958
0.00017385
0.000173742
0.000173635
0.000173527
0.00017342
0.000173314
0.000175288
0.000175194
0.000175098
0.000175001
0.000174902
0.000174801
0.000174699
0.000174595
0.000174491
0.000174385
0.000174279
0.000174172
0.000174065
0.000173957
0.000173849
0.000173742
0.000173634
0.000173527
0.00017342
0.000173314
0.000175288
0.000175193
0.000175097
0.000175
0.0001749
0.000174799
0.000174697
0.000174594