/*--------------------------------*- C++ -*----------------------------------*\
  =========                 |
  \\      /  F ield         | OpenFOAM: The Open Source CFD Toolbox
   \\    /   O peration     | Website:  https://openfoam.org
    \\  /    A nd           | Version:  13
     \\/     M anipulation  |
\*---------------------------------------------------------------------------*/
FoamFile
{
    format      ascii;
    class       volScalarField;
    location    "276";
    object      omega;
}
// * * * * * * * * * * * * * * * * * * * * * * * * * * * * * * * * * * * * * //

dimensions      [0 0 -1 0 0 0 0];

internalField   nonuniform List<scalar> 
26820
(
851.908
811.978
779.465
752.804
730.732
712.296
696.767
851.874
811.887
779.331
752.638
730.54
712.087
696.535
851.807
811.704
779.062
752.305
730.156
711.669
696.072
851.706
811.431
778.66
751.806
729.583
711.043
695.378
851.572
811.067
778.125
751.143
728.82
710.212
694.458
851.405
810.615
777.459
750.318
727.871
709.178
693.313
851.205
810.074
776.664
749.334
726.74
707.945
691.948
850.973
809.446
775.742
748.192
725.428
706.516
690.368
850.709
808.732
774.695
746.897
723.941
704.897
688.578
850.414
807.935
773.526
745.451
722.282
703.092
686.584
850.089
807.056
772.237
743.86
720.457
701.107
684.394
849.733
806.096
770.833
742.126
718.471
698.948
682.013
849.348
805.059
769.316
740.255
716.33
696.621
679.45
848.934
803.946
767.69
738.253
714.039
694.133
676.714
848.493
802.759
765.959
736.123
711.606
691.493
673.812
848.025
801.502
764.128
733.872
709.038
688.706
670.754
847.531
800.178
762.2
731.504
706.339
685.781
667.547
847.012
798.787
760.179
729.025
703.517
682.721
664.198
846.469
797.33
758.064
726.433
700.575
679.524
660.72
845.903
795.814
755.865
723.733
697.516
676.149
657.204
682.947
670.138
658.923
649.072
640.399
632.752
626.007
620.069
614.863
610.34
606.472
603.251
600.681
598.776
597.576
597.181
597.766
599.593
603.046
608.676
617.268
629.929
648.235
674.423
711.678
764.553
839.583
946.2
1098.11
1315.39
1627.83
2080.27
2741.6
3721.2
5199.57
7494.29
11520.3
40718.2
318225
2.69204e+06
682.732
669.948
658.755
648.924
640.268
632.636
625.904
619.977
614.781
610.266
606.405
603.19
600.624
598.722
597.525
597.13
597.711
599.532
602.974
608.589
617.157
629.785
648.043
674.161
711.316
764.048
838.871
945.188
1096.66
1313.29
1624.78
2075.8
2735
3711.43
5185.33
7474.48
11497.6
40774.8
319289
2.69204e+06
682.304
669.567
658.419
648.628
640.007
632.405
625.699
619.794
614.618
610.121
606.276
603.074
600.52
598.628
597.439
597.052
597.64
599.465
602.911
608.526
617.093
629.715
647.962
674.06
711.182
763.858
838.59
944.76
1095.99
1312.24
1623.1
2073.11
2730.7
3704.58
5174.72
7459.29
11486.8
40858.3
319811
2.69204e+06
681.663
668.997
657.917
648.186
639.617
632.059
625.392
619.522
614.376
609.905
606.084
602.903
600.369
598.495
597.322
596.95
597.553
599.393
602.855
608.488
617.073
629.717
647.989
674.116
711.27
763.982
838.75
944.948
1096.19
1312.4
1623.13
2072.85
2729.82
3702.63
5171.07
7453.59
11496.2
41025.6
320355
2.69204e+06
680.812
668.24
657.25
647.598
639.097
631.599
624.984
619.159
614.053
609.618
605.829
602.677
600.169
598.318
597.167
596.816
597.439
599.299
602.782
608.437
617.048
629.721
648.026
674.194
711.396
764.165
838.999
945.272
1096.59
1312.88
1623.67
2073.38
2730.23
3702.77
5170.8
7452.74
11521.6
41306.3
321205
2.69204e+06
679.753
667.298
656.42
646.866
638.451
631.027
624.476
618.708
613.652
609.261
605.511
602.395
599.919
598.098
596.975
596.65
597.297
599.183
602.691
608.374
617.015
629.724
648.071
674.288
711.551
764.392
839.316
945.698
1097.15
1313.6
1624.57
2074.5
2731.62
3704.53
5173.23
7455.95
11562.7
41715.3
322446
2.69204e+06
678.491
666.175
655.429
645.993
637.679
630.343
623.87
618.168
613.172
608.834
605.131
602.057
599.621
597.836
596.747
596.452
597.13
599.046
602.586
608.303
616.982
629.735
648.135
674.416
711.757
764.696
839.743
946.28
1097.93
1314.64
1625.96
2076.37
2734.17
3708.14
5178.64
7463.74
11621.3
42259.5
324092
2.69204e+06
677.03
664.874
654.281
644.98
636.784
629.55
623.166
617.542
612.614
608.338
604.69
601.666
599.275
597.533
596.482
596.225
596.939
598.891
602.468
608.226
616.952
629.758
648.223
674.583
712.022
765.085
840.29
947.034
1098.96
1316.04
1627.87
2079.03
2737.93
3713.64
5187.06
7476.3
11698.6
42942.2
326139
2.69204e+06
675.374
663.399
652.979
643.831
635.768
628.65
622.367
616.832
611.982
607.774
604.189
601.222
598.883
597.188
596.182
595.968
596.723
598.717
602.338
608.144
616.924
629.794
648.335
674.789
712.347
765.561
840.961
947.962
1100.23
1317.79
1630.3
2082.45
2742.86
3720.97
5198.37
7493.57
11796
43766
328574
2.69204e+06
673.529
661.755
651.527
642.549
634.635
627.645
621.474
616.038
611.275
607.145
603.629
600.726
598.445
596.804
595.848
595.681
596.483
598.525
602.196
608.057
616.899
629.843
648.473
675.037
712.733
766.126
841.759
949.069
1101.76
1319.9
1633.25
2086.64
2748.95
3730.08
5212.49
7515.55
11914.8
44734.7
331387
2.69204e+06
671.501
659.947
649.93
641.139
633.386
626.538
620.49
615.162
610.495
606.451
603.012
600.179
597.962
596.38
595.48
595.366
596.221
598.316
602.043
607.966
616.879
629.907
648.638
675.329
713.186
766.785
842.689
950.361
1103.54
1322.38
1636.73
2091.61
2756.2
3740.99
5229.41
7542.34
12057.2
45853.4
334571
2.69204e+06
669.296
657.98
648.191
639.602
632.026
625.332
619.418
614.208
609.645
605.694
602.339
599.582
597.435
595.919
595.08
595.024
595.936
598.09
601.881
607.873
616.866
629.988
648.834
675.669
713.708
767.543
843.759
951.849
1105.61
1325.25
1640.76
2097.39
2764.65
3753.72
5249.17
7574.22
12225.9
47129.9
338121
2.69204e+06
666.923
655.861
646.317
637.945
630.558
624.029
618.26
613.177
608.727
604.876
601.612
598.937
596.866
595.42
594.648
594.656
595.631
597.849
601.709
607.778
616.86
630.087
649.063
676.059
714.304
768.407
844.976
953.543
1107.95
1328.52
1645.38
2104
2774.34
3768.34
5271.88
7611.52
12422.5
48562.8
342055
2.69204e+06
664.387
653.595
644.311
636.171
628.987
622.633
617.019
612.072
607.742
603.999
600.831
598.245
596.256
594.886
594.185
594.262
595.306
597.595
601.53
607.684
616.864
630.208
649.327
676.503
714.98
769.384
846.351
955.456
1110.61
1332.23
1650.6
2111.5
2785.34
3784.94
5297.66
7654.58
12647.4
50145.7
346403
2.69204e+06
661.697
651.19
642.181
634.285
627.315
621.148
615.697
610.894
606.693
603.064
600
597.509
595.607
594.318
593.694
593.845
594.962
597.327
601.345
607.592
616.879
630.352
649.63
677.007
715.741
770.481
847.896
957.606
1113.6
1336.39
1656.48
2119.95
2797.73
3803.61
5326.7
7703.93
12904.9
51895.4
351171
2.69204e+06
658.861
648.653
639.932
632.293
625.548
619.578
614.299
609.648
605.582
602.074
599.12
596.729
594.92
593.718
593.175
593.405
594.601
597.049
601.156
607.503
616.907
630.522
649.976
677.575
716.595
771.71
849.623
960.009
1116.93
1341.06
1663.07
2129.42
2811.61
3824.52
5359.19
7760.3
13200.3
53832.3
356364
2.69204e+06
655.887
645.989
637.57
630.2
623.689
617.925
612.827
608.336
604.412
601.031
598.192
595.907
594.196
593.086
592.63
592.944
594.225
596.761
600.964
607.42
616.953
630.723
650.37
678.213
717.549
773.079
851.547
962.686
1120.66
1346.26
1670.42
2139.98
2827.1
3847.85
5395.42
7824.71
13540.4
55978.3
361990
2.69204e+06
652.783
643.209
635.101
628.01
621.744
616.195
611.285
606.961
603.185
599.938
597.22
595.046
593.438
592.425
592.061
592.464
593.835
596.465
600.771
607.345
617.017
630.957
650.815
678.927
718.612
774.602
853.685
965.662
1124.79
1352.05
1678.61
2151.74
2844.35
3873.8
5435.72
7898.44
13933.1
58357.3
368062
2.69204e+06
649.539
640.311
632.536
625.733
619.719
614.391
609.677
605.526
601.905
598.797
596.205
594.148
592.648
591.736
591.469
591.967
593.432
596.163
600.58
607.281
617.104
631.228
651.317
679.726
719.795
776.292
856.056
968.962
1129.39
1358.47
1687.7
2164.81
2863.53
3902.65
5480.5
7983.12
14387.5
60995.7
374600
2.69204e+06
646.331
637.308
629.845
623.359
617.616
612.518
608.006
604.035
600.573
597.61
595.15
593.214
591.827
591.022
590.856
591.453
593.02
595.858
600.393
607.23
617.216
631.541
651.883
680.616
721.108
778.165
858.682
972.618
1134.47
1365.6
1697.79
2179.33
2884.83
3934.69
5530.27
8080.8
14914.9
63922.9
381626
2.69204e+06
642.306
634.535
627.215
620.921
615.435
610.579
606.277
602.49
599.194
596.381
594.057
592.247
590.978
590.284
590.224
590.926
592.599
595.55
600.213
607.197
617.359
631.902
652.519
681.606
722.563
780.238
861.587
976.662
1140.11
1373.5
1708.98
2195.43
2908.48
3970.28
5585.66
8194.07
15528.7
67173.6
389185
2.69204e+06
638.282
631.482
624.571
618.459
613.192
608.574
604.491
600.896
597.771
595.111
592.928
591.249
590.102
589.524
589.576
590.386
592.172
595.244
600.041
607.183
617.536
632.315
653.233
682.708
724.175
782.529
864.797
981.134
1146.34
1382.24
1721.39
2213.3
2934.74
4009.83
5647.42
8326.19
16244.5
70778.9
397167
2.69204e+06
634.361
628.186
621.825
615.971
610.906
606.514
602.652
599.255
596.305
593.804
591.767
590.222
589.203
588.744
588.912
589.837
591.741
594.94
599.882
607.193
617.751
632.787
654.032
683.933
725.959
785.062
868.344
986.077
1153.24
1391.93
1735.14
2233.13
2963.9
4053.8
5716.47
8481.31
17082
74805.7
406972
2.69204e+06
630.511
624.75
618.948
613.437
608.587
604.407
600.763
597.569
594.801
592.462
590.575
589.17
588.281
587.948
588.236
589.281
591.308
594.643
599.738
607.231
618.011
633.325
654.926
685.292
727.933
787.86
872.262
991.539
1160.87
1402.66
1750.39
2255.15
2996.31
4102.74
5793.93
8664.69
18063.5
79321.4
419689
2.69204e+06
626.688
621.246
615.952
610.838
606.235
602.264
598.833
595.844
593.261
591.089
589.355
588.093
587.34
587.136
587.55
588.72
590.877
594.355
599.614
607.301
618.321
633.936
655.927
686.8
730.117
790.951
876.589
997.577
1169.31
1414.54
1767.31
2279.61
3032.36
4157.27
5881.22
8883.22
19227.4
84673.7
434598
2.69204e+06
622.861
617.709
612.863
608.168
603.847
600.089
596.866
594.081
591.688
589.688
588.111
586.996
586.383
586.312
586.856
588.156
590.45
594.08
599.513
607.409
618.687
634.63
657.044
688.474
732.531
794.365
881.37
1004.25
1178.65
1427.72
1786.1
2306.81
3072.5
4218.14
5980.12
9145.14
20579.5
89225.3
452714
2.69204e+06
619.011
614.156
609.707
605.429
601.417
597.886
594.869
592.287
590.085
588.26
586.845
585.881
585.411
585.478
586.156
587.593
590.031
593.82
599.439
607.56
619.117
635.416
658.291
690.331
735.203
798.138
886.654
1011.64
1189.01
1442.33
1806.97
2337.09
3117.27
4286.21
6092.94
9461.71
22170
92496.7
473634
2.69204e+06
615.133
610.59
606.506
602.63
598.946
595.656
592.846
590.465
588.456
586.81
585.559
584.75
584.427
584.636
585.455
587.033
589.621
593.58
599.397
607.759
619.618
636.304
659.684
692.391
738.158
802.31
892.498
1019.81
1200.48
1458.57
1830.2
2370.85
3167.28
4362.52
6222.61
9843.51
23605
95214.6
496326
2.69204e+06
611.227
607.014
603.276
599.783
596.435
593.4
590.801
588.621
586.805
585.34
584.257
583.606
583.435
583.79
584.753
586.479
589.226
593.364
599.393
608.015
620.2
637.306
661.237
694.677
741.43
806.925
898.966
1028.87
1213.22
1476.62
1856.08
2408.54
3223.23
4448.33
6372.81
10268.5
24687.8
98034.2
519845
2.69204e+06
607.295
603.429
600.027
596.899
593.889
591.12
588.738
586.758
585.135
583.853
582.942
582.453
582.437
582.942
584.055
585.935
588.848
593.176
599.432
608.333
620.873
638.437
662.97
697.214
745.054
812.034
906.13
1038.92
1227.37
1496.72
1884.96
2450.7
3285.99
4545.29
6544.99
10646
25442.8
101431
543431
2.69204e+06
603.346
599.836
596.767
593.99
591.313
588.817
586.658
584.88
583.451
582.353
581.616
581.293
581.436
582.096
583.364
585.404
588.491
593.022
599.52
608.723
621.647
639.71
664.904
700.033
749.071
817.696
914.075
1050.07
1243.11
1519.13
1917.24
2497.94
3356.58
4654.54
6721.55
10960.3
25906.4
105768
566457
2.69204e+06
599.384
596.239
593.502
591.063
588.714
586.495
584.564
582.99
581.755
580.844
580.283
580.129
580.435
581.255
582.683
584.89
588.161
592.906
599.665
609.193
622.535
641.144
667.062
703.165
753.529
823.977
922.896
1062.48
1260.66
1544.15
1953.39
2551.04
3435.8
4774.69
6902.6
11180.8
26172.5
111302
588374
2.69204e+06
595.419
592.64
590.237
588.128
586.099
584.159
582.46
581.092
580.052
579.328
578.946
578.964
579.437
580.421
582.016
584.397
587.862
592.836
599.875
609.756
623.551
642.758
669.472
706.649
758.48
830.954
932.704
1076.3
1280.24
1572.18
1993.99
2610.47
3524.6
4908.08
7083.78
11270
26401.7
118193
608662
2.69204e+06
591.457
589.046
586.977
585.19
583.474
581.811
580.348
579.188
578.344
577.809
577.609
577.802
578.446
579.6
581.367
583.93
587.599
592.818
600.158
610.421
624.713
644.574
672.164
710.528
763.986
838.715
943.627
1091.72
1302.15
1603.52
2039.4
2677.31
3624.89
5057.46
7251.53
11197
26820.2
126487
626809
2.69204e+06
587.505
585.461
583.727
582.257
580.845
579.458
578.231
577.282
576.636
576.29
576.274
576.646
577.466
578.793
580.739
583.492
587.379
592.859
600.524
611.203
626.037
646.617
675.173
714.852
770.118
847.365
955.818
1108.93
1326.61
1638.65
2090.47
2752.81
3739.27
5224.42
7380.07
10956.8
27709.2
136114
642293
2.69204e+06
583.571
581.89
580.491
579.333
578.219
577.103
576.114
575.377
574.93
574.776
574.946
575.501
576.5
578.006
580.137
583.09
587.207
592.969
600.986
612.117
627.545
648.916
678.542
719.681
776.961
857.002
969.41
1128.17
1354.04
1678.14
2148.08
2838.61
3871.28
5406.38
7432.36
10593
29383.7
146866
654590
2.69204e+06
579.659
578.338
577.274
576.423
575.6
574.751
574
573.477
573.23
573.269
573.628
574.368
575.552
577.243
579.567
582.729
587.091
593.156
601.555
613.182
629.262
651.507
682.312
725.069
784.59
867.765
984.611
1149.74
1384.87
1722.68
2213.28
2937.07
4025.01
5592.2
7366.94
10220.2
32161.4
158402
663182
2.69204e+06
575.776
574.812
574.08
573.532
572.993
572.407
571.892
571.585
571.54
571.773
572.323
573.254
574.626
576.508
579.033
582.416
587.041
593.432
602.246
614.414
631.212
654.421
686.538
731.098
793.123
879.815
1001.66
1173.99
1419.64
1773.03
2287.48
3051.72
4203.33
5758.32
7158.27
10053.4
36310
170248
667608
2.69204e+06
571.924
571.316
570.913
570.665
570.403
570.075
569.795
569.703
569.862
570.293
571.037
572.161
573.728
575.807
578.541
582.158
587.064
593.81
603.078
615.842
633.433
657.712
691.29
737.866
802.701
893.356
1020.85
1201.35
1458.98
1830.12
2372.66
3187.37
4404.81
5867.89
6808.53
10353.4
42047.7
181799
667507
2.69204e+06
568.119
567.864
567.784
567.829
567.838
567.761
567.713
567.838
568.201
568.83
569.77
571.092
572.856
575.138
578.09
581.954
587.16
594.286
604.046
617.459
635.92
661.379
696.575
745.396
813.375
908.485
1042.37
1232.15
1503.39
1894.96
2472.01
3349.33
4616.4
5872.37
6385.62
11478.3
49552.6
192529
662919
2.69206e+06
845.395
794.909
754.698
722.381
696.078
674.44
656.425
845.395
794.908
754.699
722.381
696.086
674.417
656.497
845.395
794.912
754.71
722.402
696.12
674.465
656.558
845.396
794.914
754.717
722.416
696.141
674.495
656.597
845.396
794.916
754.723
722.427
696.159
674.518
656.626
845.396
794.918
754.728
722.436
696.172
674.535
656.647
845.396
794.919
754.731
722.441
696.181
674.546
656.66
845.396
794.919
754.732
722.444
696.185
674.551
656.665
845.396
794.919
754.732
722.444
696.185
674.55
656.662
845.396
794.919
754.731
722.443
696.181
674.545
656.655
845.396
794.918
754.73
722.439
696.176
674.537
656.644
845.395
794.917
754.727
722.435
696.169
674.527
656.631
845.395
794.916
754.725
722.431
696.162
674.517
656.618
845.395
794.916
754.723
722.427
696.156
674.507
656.605
845.395
794.915
754.721
722.423
696.149
674.499
656.593
845.395
794.914
754.719
722.419
696.144
674.491
656.583
845.395
794.914
754.718
722.416
696.139
674.485
656.575
845.395
794.913
754.716
722.414
696.136
674.48
656.568
845.395
794.913
754.715
722.412
696.133
674.476
656.562
845.395
794.913
754.715
722.411
696.131
674.473
656.558
845.395
794.912
754.714
722.41
696.129
674.47
656.555
845.395
794.912
754.714
722.409
696.128
674.469
656.552
845.395
794.912
754.713
722.408
696.127
674.467
656.551
845.395
794.912
754.713
722.408
696.126
674.466
656.549
845.395
794.912
754.713
722.408
696.126
674.466
656.548
845.395
794.912
754.713
722.408
696.125
674.465
656.547
845.395
794.912
754.713
722.407
696.125
674.465
656.546
845.395
794.912
754.713
722.407
696.125
674.465
656.546
845.395
794.912
754.713
722.407
696.125
674.465
656.545
845.395
794.912
754.713
722.407
696.124
674.465
656.545
845.395
794.912
754.713
722.407
696.124
674.464
656.544
845.395
794.912
754.713
722.407
696.124
674.464
656.544
845.395
794.912
754.713
722.407
696.124
674.465
656.543
845.395
794.912
754.713
722.407
696.124
674.465
656.543
845.395
794.912
754.713
722.407
696.124
674.465
656.542
845.395
794.912
754.713
722.407
696.124
674.465
656.542
845.395
794.912
754.713
722.407
696.124
674.465
656.541
845.395
794.912
754.713
722.407
696.124
674.465
656.54
845.395
794.912
754.713
722.407
696.124
674.465
656.54
845.395
794.912
754.713
722.407
696.124
674.465
656.539
646.481
642.819
639.079
635.236
631.292
627.261
623.158
618.997
614.793
610.557
606.302
602.038
597.776
593.524
589.291
585.086
580.915
576.787
572.706
568.69
646.369
642.547
638.651
634.68
630.642
626.547
622.407
618.23
614.026
609.804
605.571
601.336
597.106
592.888
588.689
584.516
580.376
576.273
572.214
568.213
646.434
642.617
638.733
634.776
630.754
626.674
622.547
618.38
614.183
609.965
605.734
601.499
597.266
593.044
588.84
584.661
580.514
576.404
572.337
568.329
646.472
642.651
638.762
634.8
630.773
626.688
622.556
618.385
614.184
609.962
605.727
601.488
597.253
593.028
588.822
584.641
580.492
576.381
572.313
568.303
646.501
642.675
638.783
634.819
630.788
626.701
622.567
618.393
614.191
609.967
605.731
601.491
597.254
593.028
588.82
584.638
580.487
576.375
572.304
568.292
646.52
642.691
638.795
634.827
630.793
626.703
622.566
618.391
614.186
609.961
605.723
601.481
597.242
593.015
588.806
584.623
580.47
576.356
572.284
568.271
646.53
642.696
638.796
634.825
630.788
626.696
622.556
618.378
614.171
609.944
605.705
601.462
597.222
592.994
588.784
584.599
580.445
576.33
572.257
568.242
646.531
642.693
638.789
634.814
630.774
626.679
622.536
618.357
614.148
609.919
605.679
601.434
597.194
592.964
588.754
584.568
580.414
576.298
572.224
568.208
646.525
642.682
638.774
634.795
630.752
626.654
622.509
618.328
614.118
609.888
605.646
601.4
597.159
592.929
588.718
584.532
580.377
576.261
572.186
568.169
646.514
642.666
638.753
634.77
630.724
626.623
622.477
618.293
614.081
609.85
605.608
601.362
597.12
592.89
588.678
584.492
580.337
576.22
572.146
568.129
646.498
642.645
638.728
634.741
630.692
626.588
622.439
618.254
614.041
609.809
605.566
601.32
597.078
592.847
588.636
584.45
580.295
576.179
572.104
568.088
646.481
642.622
638.7
634.709
630.657
626.55
622.4
618.213
613.999
609.766
605.522
601.276
597.034
592.804
588.593
584.408
580.254
576.138
572.064
568.048
646.463
642.598
638.671
634.676
630.62
626.511
622.358
618.17
613.955
609.722
605.478
601.232
596.99
592.761
588.551
584.366
580.213
576.099
572.026
568.01
646.445
642.574
638.641
634.642
630.583
626.471
622.316
618.126
613.911
609.677
605.433
601.187
596.947
592.719
588.51
584.327
580.175
576.062
571.99
567.977
646.429
642.551
638.612
634.608
630.545
626.43
622.273
618.082
613.866
609.632
605.389
601.144
596.904
592.678
588.47
584.289
580.14
576.028
571.959
567.947
646.414
642.528
638.583
634.574
630.507
626.389
622.23
618.038
613.821
609.587
605.344
601.101
596.863
592.638
588.433
584.253
580.106
575.998
571.93
567.921
646.4
642.506
638.555
634.54
630.469
626.348
622.186
617.993
613.775
609.542
605.3
601.058
596.822
592.599
588.396
584.22
580.076
575.97
571.905
567.899
646.388
642.485
638.526
634.506
630.429
626.305
622.141
617.947
613.729
609.496
605.255
601.014
596.78
592.56
588.361
584.188
580.047
575.944
571.884
567.88
646.377
642.464
638.497
634.47
630.389
626.261
622.095
617.899
613.68
609.448
605.209
600.97
596.739
592.522
588.326
584.156
580.019
575.921
571.864
567.865
646.366
642.443
638.467
634.433
630.346
626.214
622.046
617.848
613.63
609.398
605.16
600.924
596.696
592.482
588.29
584.125
579.993
575.899
571.847
567.852
646.356
642.421
638.435
634.394
630.301
626.165
621.993
617.794
613.576
609.345
605.109
600.876
596.651
592.442
588.254
584.093
579.966
575.878
571.831
567.841
646.347
642.398
638.402
634.352
630.252
626.112
621.937
617.737
613.518
609.288
605.055
600.824
596.603
592.398
588.216
584.061
579.939
575.857
571.816
567.832
646.337
642.374
638.366
634.306
630.2
626.054
621.876
617.674
613.455
609.227
604.996
600.769
596.552
592.352
588.175
584.027
579.911
575.835
571.801
567.824
646.327
642.348
638.327
634.257
630.142
625.991
621.81
617.606
613.387
609.16
604.932
600.709
596.497
592.303
588.132
583.99
579.882
575.813
571.787
567.817
646.317
642.32
638.284
634.203
630.08
625.922
621.737
617.531
613.312
609.087
604.862
600.643
596.437
592.249
588.085
583.951
579.851
575.79
571.772
567.81
646.305
642.289
638.238
634.144
630.011
625.846
621.657
617.449
613.231
609.007
604.785
600.571
596.371
592.19
588.034
583.908
579.817
575.765
571.756
567.804
646.293
642.256
638.187
634.079
629.935
625.763
621.569
617.359
613.14
608.919
604.701
600.493
596.299
592.126
587.978
583.862
579.78
575.739
571.74
567.797
646.28
642.219
638.13
634.007
629.852
625.672
621.472
617.26
613.041
608.822
604.608
600.406
596.22
592.055
587.917
583.811
579.74
575.709
571.722
567.791
646.266
642.178
638.068
633.928
629.76
625.571
621.365
617.15
612.932
608.715
604.506
600.31
596.132
591.977
587.85
583.754
579.696
575.678
571.702
567.784
646.25
642.134
638
633.841
629.659
625.459
621.247
617.029
612.811
608.597
604.393
600.205
596.036
591.891
587.775
583.693
579.647
575.643
571.681
567.776
646.232
642.084
637.924
633.744
629.547
625.336
621.117
616.896
612.678
608.467
604.269
600.088
595.929
591.796
587.693
583.625
579.594
575.604
571.658
567.768
646.213
642.029
637.841
633.638
629.423
625.2
620.973
616.748
612.53
608.323
604.131
599.959
595.811
591.691
587.603
583.549
579.535
575.562
571.633
567.759
646.192
641.969
637.749
633.521
629.286
625.049
620.814
616.586
612.367
608.164
603.979
599.817
595.682
591.576
587.503
583.467
579.47
575.515
571.605
567.75
646.168
641.903
637.647
633.391
629.135
624.883
620.639
616.406
612.188
607.989
603.812
599.66
595.538
591.448
587.393
583.375
579.398
575.464
571.574
567.74
646.143
641.829
637.534
633.247
628.968
624.7
620.445
616.207
611.989
607.795
603.626
599.487
595.38
591.307
587.271
583.274
579.318
575.407
571.54
567.728
646.114
641.748
637.41
633.089
628.784
624.497
620.231
615.987
611.77
607.58
603.422
599.296
595.205
591.151
587.136
583.162
579.231
575.344
571.502
567.715
646.082
641.658
637.273
632.914
628.58
624.273
619.994
615.745
611.528
607.344
603.196
599.084
595.011
590.978
586.987
583.039
579.134
575.275
571.461
567.701
646.048
641.558
637.121
632.721
628.355
624.026
619.733
615.477
611.26
607.083
602.946
598.851
594.798
590.788
586.823
582.902
579.027
575.198
571.415
567.686
646.009
641.449
636.953
632.507
628.107
623.752
619.444
615.181
610.964
606.794
602.67
598.592
594.561
590.578
586.641
582.751
578.908
575.113
571.364
567.669
645.966
641.327
636.768
632.271
627.833
623.451
619.125
614.855
610.638
606.475
602.365
598.308
594.301
590.346
586.441
582.585
578.778
575.02
571.308
567.651
2.73997e+06
2.73997e+06
2.73997e+06
2.73997e+06
2.73997e+06
2.73997e+06
2.73997e+06
2.73997e+06
2.73997e+06
2.73997e+06
2.73997e+06
2.73997e+06
2.73997e+06
2.73997e+06
2.73997e+06
2.73997e+06
2.73997e+06
2.73997e+06
2.73997e+06
2.73997e+06
2.73997e+06
2.73997e+06
2.73997e+06
2.73997e+06
2.73997e+06
2.73997e+06
2.73997e+06
2.73997e+06
2.73997e+06
2.73997e+06
2.73997e+06
2.73997e+06
2.73997e+06
2.73997e+06
2.73997e+06
2.73997e+06
2.73997e+06
2.73997e+06
2.73997e+06
2.73997e+06
2.73997e+06
2.73997e+06
2.73997e+06
2.73997e+06
2.73997e+06
2.73997e+06
2.73997e+06
2.73997e+06
2.73997e+06
2.73997e+06
2.73997e+06
2.73997e+06
2.73997e+06
2.73997e+06
2.73997e+06
2.73997e+06
2.73997e+06
2.73997e+06
2.73997e+06
2.73997e+06
2.73997e+06
2.73997e+06
2.73997e+06
2.73997e+06
2.73997e+06
2.73997e+06
2.73997e+06
2.73997e+06
2.73997e+06
2.73997e+06
2.73997e+06
2.73997e+06
2.73997e+06
2.73997e+06
2.73997e+06
2.73997e+06
2.73997e+06
2.73997e+06
2.73997e+06
2.73997e+06
655510
628915
596098
565520
540288
520445
504943
492702
482957
475229
469164
464430
460707
457725
455283
453258
451577
450197
449187
448364
447677
447097
446606
446307
446092
445909
445756
445632
445528
445443
445377
445330
445302
445291
445296
445317
445354
445405
445468
445543
445627
445718
445812
445908
446003
446095
446180
446258
446328
446389
446440
446483
446516
446541
446558
446584
446608
446623
446629
446628
446621
446610
446594
446575
446554
446531
446508
446483
446458
446432
446406
446381
446355
446331
446306
446283
446260
446238
446216
446195
200411
203071
201951
198181
193077
187680
182588
178024
173981
170365
167087
164099
161388
158957
156801
154903
153232
151758
150469
149335
148334
147453
146682
145760
144805
143949
143245
142674
142181
141757
141396
141092
140842
140638
140477
140356
140273
140224
140206
140214
140246
140297
140362
140438
140519
140601
140681
140754
140820
140876
140920
140952
140972
140980
140981
140942
140893
140840
140786
140729
140670
140610
140548
140486
140423
140359
140296
140233
140170
140108
140047
139987
139929
139871
139815
139760
139706
139654
139604
139555
57596.2
65005.7
72457.3
79455.1
85635.1
90822.1
94998.1
98225.9
100585
102141
102941
103035
102485
101375
99806.5
97894.5
95754.2
93491.6
91197.4
88942.1
86775.4
84729.2
82823.5
81029.1
79342.5
77785.8
76328.4
74951.9
73687.7
72568.6
71582.7
70703.7
69920.6
69225.1
68608.9
68065.4
67589.2
67174.7
66816.9
66510.9
66251.8
66034.6
65854.4
65706
65584.2
65483.7
65399.4
65326.8
65261.5
65199.8
65138.5
65075.4
65008.8
64938.5
64859.6
64758.5
64649.5
64537.6
64423.3
64306.7
64187.9
64067.1
63944.9
63821.4
63697.2
63572.7
63448.4
63324.5
63201.5
63079.7
62959.3
62840.8
62724.3
62609.9
62497.9
62388.1
62280.9
62176.5
62075
61976.6
13392.6
15829.4
19115.5
23205.1
27948
33141.1
38562.1
44003.3
49285.9
54271.4
58834.9
62874.5
66312
69094.6
71195.5
72615.5
73383.4
73552.4
73194.8
72395.1
71243.1
69827.4
68230.6
66521.4
64754.9
62977.2
61220.4
59505.3
57852.5
56259.2
54733.9
53291.8
51951.7
50710.4
49558.7
48490.9
47503.4
46592.4
45753.8
44984
44279.7
43637.9
43055.5
42529
42054.6
41628.1
41245.1
40900.9
40590.7
40310.2
40055.2
39821.4
39605
39402.5
39203.7
39006.1
38811.6
38621.2
38434.4
38250.1
38067.6
37886
37705.2
37524.8
37344.8
37165.4
36986.7
36809
36632.4
36457.3
36283.9
36112.4
35943.2
35776.3
35612.1
35450.5
35292.1
35137.2
34985.9
34838.4
6059.65
5939.54
6107.48
6645.32
7620.8
9079.5
11031.2
13442.5
16280
19476.7
22956
26625
30382.2
34122.8
37742.9
41150.2
44261.2
47005.4
49332
51211.6
52635.4
53613.7
54172.4
54349.5
54190.6
53745.4
53064.3
52195.3
51182.8
50065
48874.4
47641.2
46380.5
45112.1
43855.4
42626.3
41435.1
40287.6
39187.6
38138.3
37142.9
36203.5
35321.9
34498.8
33734.5
33028.5
32379.3
31784.9
31242.5
30748.8
30300.5
29894.4
29524.9
29184.7
28869.2
28574.4
28297.5
28036.3
27788.5
27551.4
27322.9
27101.1
26884.4
26671.6
26461.7
26254.1
26048.5
25844.4
25641.7
25440.4
25240.5
25041.9
24844.9
24649.4
24455.7
24264.8
24076.8
23891.8
23709.8
23531
5772.89
5610.63
5397.31
5168.59
4969.7
4855.23
4886.98
5126.38
5598.25
6327.57
7331.44
8611.81
10163.1
11971.7
14008.6
16230.2
18586.8
21021.5
23472.5
25876.7
28174.3
30311.8
32244.6
33942.4
35382.8
36553.8
37453.6
38090.1
38478.2
38638.5
38594.8
38373
37999.2
37498.1
36893.9
36207.4
35457.5
34662.7
33839.9
33003
32164.8
31336.2
30526.2
29741.9
28988.9
28271.8
27593.5
26956.1
26360.9
25807.8
25296.2
24824.1
24389.7
23990.4
23623.6
23286.1
22974.7
22686.4
22418.1
22166.9
21929.7
21703.9
21487.4
21278.2
21074.6
20875.2
20678.9
20484.7
20292
20100.3
19909.1
19718.4
19527.7
19337.1
19146.6
18957.5
18769.9
18583.7
18398.9
18215.4
4785.2
4886.2
4952.21
4974.45
4947.99
4874.12
4762.25
4632.3
4507.95
4416.46
4387.73
4453.97
4638.57
4957.52
5425.06
6046.76
6824.92
7757.39
8834.49
10039.6
11350
12737.7
14171.2
15615.6
17038.3
18408.3
19697.6
20882.4
21944.1
22869.8
23651.9
24288.3
24780.8
25137.3
25366.8
25479.9
25488.3
25404.8
25242.4
25014.2
24732.1
24407.1
24049.4
23668.6
23273.2
22870.6
22466.9
22067.5
21676.2
21296.6
20931.2
20582.4
20251.7
19940.4
19649.1
19377.7
19125.6
18891.3
18673.4
18470.1
18279.4
18099.8
17929.5
17766.9
17610.2
17457.9
17308.5
17160.8
17013.8
16866.9
16719.4
16570.7
16420.3
16268
16113.8
15958.1
15801.2
15643.3
15484.3
15323.9
3501.69
3618.7
3740.03
3861.11
3975.89
4077.38
4158.4
4212.85
4237.16
4231.03
4198.01
4146.33
4087.78
4035.91
4006.11
4014.93
4075.96
4200.24
4396.87
4672.7
5031.4
5472.81
5993.45
6584.83
7236.69
7936.85
8671.33
9425.05
10182.6
10928.9
11650.1
12334.2
12971.1
13552.9
14074.9
14534.6
14931.9
15268.3
15546.3
15770
15943.6
16072.1
16160.1
16212.4
16233.3
16227
16198.3
16150.9
16088
16012.2
15926.3
15832.4
15733
15630.3
15526.2
15422.8
15321.3
15222.6
15127.3
15035.9
14948.7
14865.7
14786.6
14711
14637.8
14566.2
14494.9
14423.3
14350.7
14276.3
14199.6
14119.8
14036.4
13949.1
13857.8
13762.3
13662.7
13559.1
13451.4
13339.5
2563.49
2631.83
2706.55
2788.15
2876.57
2971.09
3070.04
3170.71
3269.54
3362.39
3444.96
3513.38
3564.85
3598.16
3614.01
3615.51
3607.32
3595.59
3587.87
3592.06
3615.58
3665.45
3747.61
3866.14
4023.34
4219.73
4454.16
4723.9
5024.91
5352.1
5699.66
6061.37
6431.12
6802.11
7168.72
7526.42
7871.55
8201.36
8513.93
8808.14
9083.54
9340.2
9578.58
9799.34
10003.2
10191.1
10363.4
10521.1
10665.1
10795.8
10914.1
11020.4
11115.2
11199.2
11273.1
11337.7
11394.9
11446
11491.6
11532.4
11569.1
11602.2
11632.5
11660.2
11685.2
11707.4
11726.6
11742.9
11755.8
11765.1
11770.2
11770.5
11765.6
11755.4
11739.7
11718.2
11690.6
11656.5
11615.9
11568.7
1951.77
1990.84
2032.49
2077.2
2125.47
2177.86
2234.91
2297
2364.24
2436.3
2512.35
2590.96
2670.2
2747.75
2821.12
2887.94
2946.25
2994.75
3033.18
3061.87
3082.24
3096.95
3109.31
3123.22
3142.78
3171.52
3212.41
3267.78
3339.21
3427.45
3532.48
3653.58
3789.51
3938.49
4098.48
4267.34
4442.99
4623.54
4807.32
4992.95
5179.33
5365.65
5551.35
5736.03
5919.42
6101.41
6281.33
6458.65
6633.12
6804.52
6972.56
7136.89
7297.07
7452.6
7602.99
7747.76
7886.64
8019.76
8147.39
8269.72
8386.93