/*--------------------------------*- C++ -*----------------------------------*\
  =========                 |
  \\      /  F ield         | OpenFOAM: The Open Source CFD Toolbox
   \\    /   O peration     | Website:  https://openfoam.org
    \\  /    A nd           | Version:  13
     \\/     M anipulation  |
\*---------------------------------------------------------------------------*/
FoamFile
{
    format      ascii;
    class       volScalarField;
    location    "276";
    object      p;
}
// * * * * * * * * * * * * * * * * * * * * * * * * * * * * * * * * * * * * * //

dimensions      [0 2 -2 0 0 0 0];

internalField   nonuniform List<scalar> 
26820
(
0.95376
0.962058
0.980773
1.00713
1.03867
1.07471
1.11451
0.95334
0.961635
0.980296
1.00659
1.03804
1.07395
1.11356
0.952556
0.960808
0.979379
1.00556
1.03682
1.07247
1.1117
0.951388
0.959558
0.978005
1.004
1.03498
1.07025
1.10888
0.949837
0.957898
0.976185
1.00194
1.03254
1.0673
1.10514
0.94791
0.955839
0.973933
0.999394
1.02952
1.06364
1.10048
0.945616
0.953392
0.971258
0.996364
1.02592
1.05927
1.09493
0.942962
0.95057
0.968175
0.992869
1.02176
1.05423
1.08849
0.939959
0.947388
0.964702
0.988927
1.01707
1.04852
1.08119
0.936618
0.943861
0.960856
0.984556
1.01185
1.04217
1.07306
0.932953
0.940007
0.956657
0.979777
1.00615
1.0352
1.06413
0.928975
0.935843
0.952127
0.97461
0.999969
1.02763
1.05442
0.9247
0.93139
0.947285
0.969078
0.993348
1.01949
1.04397
0.920142
0.926667
0.942155
0.963204
0.986311
1.01081
1.03283
0.915317
0.921696
0.936759
0.957011
0.978884
1.00159
1.02103
0.910241
0.916496
0.931118
0.950523
0.971098
0.991874
1.00865
0.904931
0.911088
0.92525
0.943757
0.962971
0.981677
0.995744
0.899406
0.905501
0.919181
0.936734
0.954507
0.970994
0.982364
0.89368
0.89978
0.912996
0.929578
0.945843
0.959945
0.968641
0.887742
0.893906
0.906726
0.922459
0.937346
0.949133
0.955336
1.16084
1.21543
1.27719
1.34653
1.42358
1.50898
1.60358
1.70828
1.82401
1.95182
2.09292
2.24857
2.42026
2.60933
2.81852
3.05251
3.31177
3.59611
3.90734
4.24799
4.62041
5.0268
5.46927
5.94976
6.46983
7.03055
7.63218
8.27397
8.95378
9.6677
10.4096
11.1705
11.9383
12.6969
13.4258
14.1006
14.6886
15.1798
15.5438
15.748
1.15968
1.21421
1.27588
1.34508
1.42198
1.5072
1.6016
1.70606
1.82151
1.94902
2.08975
2.24499
2.41621
2.60473
2.81334
3.04667
3.30519
3.58867
3.89889
4.23837
4.60945
5.01428
5.45495
5.93335
6.45102
7.00895
7.60738
8.24548
8.92105
9.63012
10.3665
11.1212
11.8819
12.6328
13.3532
14.0188
14.5981
15.0812
15.4371
15.613
1.15744
1.21185
1.27336
1.34232
1.41892
1.50382
1.59784
1.70187
1.81684
1.94378
2.08387
2.23838
2.40875
2.59632
2.80383
3.03587
3.29292
3.57471
3.88297
4.2202
4.58867
4.9905
5.42769
5.90208
6.41512
6.96771
7.55998
8.19103
8.85852
9.55838
10.2843
11.0271
11.7747
12.5109
13.2153
13.8638
14.425
14.8892
15.2261
15.3733
1.15407
1.20828
1.26955
1.33813
1.41429
1.49869
1.59215
1.69553
1.80975
1.93583
2.07495
2.22834
2.39744
2.58355
2.78937
3.01944
3.27426
3.55349
3.8588
4.19263
4.55718
4.95447
5.38643
5.85478
6.36084
6.9054
7.48843
8.10886
8.76421
9.45022
10.1604
10.8855
11.6132
12.3273
13.0074
13.6297
14.1623
14.5957
14.9014
15.0184
1.14963
1.20352
1.26447
1.33256
1.40814
1.49187
1.58458
1.68709
1.80031
1.92526
2.06308
2.21498
2.38238
2.56655
2.77014
2.9976
3.24946
3.5253
3.82671
4.15603
4.51538
4.90667
5.33171
5.79206
6.28891
6.82284
7.39366
8.00007
8.63938
9.30709
9.9965
10.6982
11.3996
12.0845
12.7324
13.3195
13.8136
14.2054
14.468
14.548
1.14411
1.19761
1.25815
1.32564
1.40048
1.4834
1.57517
1.6766
1.78859
1.91212
2.04833
2.19839
2.36368
2.54543
2.74624
2.9705
3.2187
3.49033
3.7869
4.11064
4.46357
4.84744
5.26391
5.71439
6.19985
6.72068
7.27642
7.86554
8.48508
9.13028
9.79414
10.467
11.1361
11.785
12.3931
12.9366
13.383
13.7231
13.931
13.9659
1.13755
1.19056
1.2506
1.31737
1.39133
1.47327
1.56393
1.66408
1.77459
1.89645
2.03073
2.1786
2.34138
2.52026
2.71776
2.9382
3.18204
3.44868
3.7395
4.05662
4.40192
4.77699
5.18331
5.62209
6.09408
6.59939
7.13732
7.70601
8.30221
8.92082
9.55454
10.1934
10.8243
11.4308
11.9918
12.4838
12.8737
13.1526
13.2948
13.2767
1.12996
1.18239
1.24184
1.30777
1.38073
1.46153
1.5509
1.64955
1.75836
1.87827
2.01034
2.15566
2.31555
2.4911
2.68479
2.90081
3.13962
3.4005
3.68468
3.99418
4.33069
4.69563
5.09029
5.51562
5.97212
6.45964
6.97712
7.5224
8.09186
8.68003
9.27925
9.87923
10.4665
11.0244
11.5315
11.9644
12.2893
12.498
12.5642
12.4858
1.12136
1.17312
1.23189
1.29686
1.36868
1.4482
1.5361
1.63307
1.73994
1.85765
1.9872
2.12965
2.28626
2.45806
2.64742
2.85847
3.0916
3.34597
3.62269
3.92359
4.2502
4.60376
4.9853
5.39553
5.83466
6.3022
6.79678
7.31584
7.85537
8.4095
8.97016
9.52666
10.0652
10.5687
11.0156
11.3823
11.6344
11.7647
11.7454
11.6
1.11179
1.16277
1.22078
1.28468
1.35522
1.43331
1.51957
1.61466
1.71939
1.83464
1.96139
2.10065
2.25361
2.42123
2.6058
2.81131
3.03814
3.28531
3.55375
3.84515
4.16082
4.50179
4.86884
5.26242
5.6824
6.12796
6.59733
7.08757
7.59421
8.11097
8.62933
9.13816
9.62324
10.0672
10.4481
10.7422
10.9144
10.9588
10.8453
10.6273
1.10126
1.15138
1.20854
1.27125
1.34039
1.41691
1.50136
1.59439
1.69675
1.80931
1.93299
2.06873
2.21769
2.38075
2.56006
2.75952
2.97946
3.21875
3.47815
3.75917
4.06292
4.39018
4.74148
5.11695
5.51614
5.93784
6.3799
6.83893
7.31
7.78636
8.259
8.71636
9.14376
9.52346
9.83307
10.0489
10.135
10.0871
9.87156
9.57631
1.08982
1.13898
1.1952
1.25661
1.32422
1.39902
1.48152
1.57229
1.67209
1.78172
1.90206
2.034
2.17862
2.33672
2.51034
2.70326
2.91574
3.14653
3.39618
3.66602
3.95693
4.26944
4.60381
4.95984
5.33673
5.73288
6.14571
6.57137
7.00445
7.43771
7.86162
8.26415
8.63013
8.94144
9.17525
9.30785
9.30254
9.15676
8.83239
8.45666
1.07749
1.1256
1.1808
1.24079
1.30675
1.37971
1.46009
1.54844
1.64547
1.75196
1.86871
1.99656
2.13652
2.2893
2.45682
2.64272
2.84723
3.06892
3.30816
3.56606
3.84329
4.1401
4.45646
4.79185
5.14508
5.51416
5.89606
6.28644
6.67942
7.0672
7.43977
7.78457
8.08594
8.32537
8.47953
8.52468
8.42358
8.17521
7.73653
7.27855
1.06429
1.11126
1.16536
1.22382
1.28802
1.35901
1.43713
1.52288
1.61697
1.72009
1.83302
1.95651
2.0915
2.23863
2.39967
2.57811
2.77416
2.98621
3.21442
3.4597
3.72247
4.00273
4.30012
4.61378
4.94215
5.28283
5.6323
5.98577
6.33682
6.67714
6.99618
7.28084
7.51499
7.67967
7.75111
7.70535
7.50508
7.15043
6.59351
6.05285
1.05026
1.09602
1.14894
1.20574
1.26807
1.33697
1.41269
1.49569
1.58665
1.68621
1.79508
1.91397
2.04371
2.18486
2.33906
2.50964
2.69678
2.89869
3.11532
3.34736
3.59498
3.85791
4.13547
4.42647
4.72895
5.04007
5.35587
5.67106
5.97869
6.26992
6.53367
6.75632
6.92121
7.009
6.99543
6.85624
6.55434
6.09132
5.41341
4.7912
1.03539
1.07992
1.13157
1.18659
1.24696
1.31365
1.38683
1.46694
1.5546
1.65041
1.75502
1.86905
1.99329
2.12817
2.27518
2.43754
2.61536
2.80668
3.01123
3.22947
3.46133
3.70625
3.96326
4.23079
4.5065
4.78712
5.06824
5.34404
5.60709
5.84801
6.05516
6.21445
6.30869
6.31813
6.2181
5.98398
5.57905
5.00704
4.20661
3.50568
1.01966
1.06302
1.11329
1.1664
1.22472
1.28911
1.35962
1.43669
1.52089
1.61278
1.71293
1.82189
1.94037
2.06871
2.20825
2.36204
2.53017
2.7105
2.90251
3.10647
3.32205
3.5484
3.78423
4.02763
4.27587
4.52525
4.77089
5.0065
5.22414
5.4139
5.56364
5.65875
5.68157
5.61194
5.42487
5.09534
4.58699
3.90657
2.9836
2.20872
1.00298
1.04542
1.09411
1.1452
1.20143
1.26341
1.33112
1.40502
1.48563
1.57342
1.66892
1.77262
1.88511
2.00667
2.13846
2.28338
2.4415
2.61047
2.78957
2.97883
3.17768
3.38499
3.59915
3.8179
4.03813
4.25572
4.46535
4.66025
4.83199
4.97015
5.06211
5.09276
5.04403
4.89538
4.62151
4.19708
3.58601
2.79891
1.75503
0.912915
0.985136
1.02729
1.07404
1.12304
1.17714
1.23659
1.3014
1.37201
1.44888
1.53243
1.62313
1.72137
1.82768
1.94222
2.06602
2.20181
2.34962
2.50694
2.6728
2.84702
3.02878
3.21667
3.40878
3.60251
3.79436
3.97983
4.15314
4.3071
4.43277
4.5193
4.55356
4.52005
4.40027
4.17336
3.81377
3.29597
2.58392
1.69316
0.53166
-0.369006
0.966157
1.00868
1.05307
1.09999
1.1519
1.20872
1.27053
1.33774
1.41075
1.48992
1.57565
1.66827
1.76821
1.87556
1.99115
2.11757
2.25483
2.40025
2.55261
2.71151
2.8759
3.0441
3.21391
3.38237
3.54566
3.69885
3.83579
3.94883
4.02862
4.06386
4.04099
3.94413
3.75442
3.45075
3.00736
2.39867
1.58849
0.598348
-0.675926
-1.62434
0.948194
0.989209
1.03092
1.07611
1.12578
1.17987
1.23859
1.3023
1.37133
1.44599
1.52662
1.61348
1.70689
1.80687
1.91407
2.03092
2.15744
2.29074
2.42938
2.57277
2.7196
2.86794
3.0153
3.1584
3.29308
3.41406
3.51479
3.58724
3.62164
3.60631
3.52732
3.36844
3.11055
2.73231
2.20785
1.51169
0.607256
-0.47677
-1.85752
-2.84059
0.931613
0.968149
1.00776
1.0515
1.09883
1.15009
1.20564
1.26576
1.33071
1.40075
1.47617
1.55713
1.64388
1.73633
1.83499
1.94212
2.05773
2.17876
2.30354
2.43128
2.56044
2.68884
2.81371
2.9315
3.0377
3.12671
3.19162
3.22405
3.21387
3.14906
3.01538
2.79633
2.47256
2.02266
1.42062
0.641305
-0.352539
-1.5238
-3.00401
-4.0054
0.914299
0.946457
0.984134
1.02625
1.07109
1.11946
1.17178
1.22821
1.28899
1.35432
1.42441
1.49936
1.57933
1.66415
1.75414
1.85142
1.95601
2.06466
2.17548
2.2875
2.39895
2.50743
2.6099
2.70254
2.78055
2.83801
2.86771
2.86094
2.80729
2.69443
2.5079
2.231
1.84423
1.32619
0.650788
-0.206496
-1.28404
-2.53473
-4.10575
-5.10945
0.895571
0.924407
0.960232
1.0004
1.04263
1.08805
1.13707
1.18975
1.24627
1.3068
1.37148
1.44033
1.51343
1.59052
1.67175
1.75908
1.85256
1.94878
2.04561
2.1419
2.23569
2.32435
2.40461
2.47239
2.52263
2.54913
2.54443
2.49953
2.40378
2.24465
2.00748
1.67549
1.22912
0.647063
-0.0967913
-1.02607
-2.18075
-3.50245
-5.15102
-6.14683
0.875737
0.902056
0.935989
0.973961
1.01352
1.05595
1.1016
1.15045
1.20265
1.25831
1.3175
1.38018
1.44633
1.51562
1.58802
1.66536
1.7477
1.83146
1.9143
1.99493
2.07118
2.14021
2.19855
2.24187
2.2649
2.26121
2.22309
2.14135
2.00514
1.8018
1.51656
1.13265
0.630521
-0.0108505
-0.817624
-1.81217
-3.03652
-4.42253
-6.12707
-7.10987
0.855181
0.879409
0.911352
0.946986
0.983826
1.02323
1.06544
1.11041
1.15823
1.20897
1.26261
1.31906
1.3782
1.43965
1.50319
1.5705
1.64169
1.71303
1.78196
1.84704
1.90593
1.9556
1.99239
2.01178
2.00829
1.97531
1.90493
1.78783
1.61303
1.3678
1.03739
0.60508
0.0514906
-0.644011
-1.50758
-2.56005
-3.84493
-5.28882
-7.0266
-7.98907
0.834108
0.856433
0.886336
0.919533
0.953614
0.989939
1.02868
1.06972
1.11311
1.15888
1.20693
1.25712
1.30922
1.3628
1.41747
1.47476
1.53484
1.59382
1.64894
1.69865
1.74043
1.77109
1.7868
1.78288
1.75368
1.69243
1.59112
1.44032
1.229
0.944457
0.572008
0.095163
-0.505239
-1.24925
-2.16295
-3.26549
-4.60091
-6.09091
-7.84658
-8.77706
0.812614
0.833119
0.860978
0.891665
0.922949
0.956165
0.991386
1.02846
1.0674
1.10815
1.15059
1.19449
1.23954
1.28526
1.33106
1.37837
1.42741
1.47414
1.51562
1.55018
1.57516
1.58722
1.5824
1.55587
1.50186
1.41351
1.28272
1.10003
0.854442
0.533353
0.12226
-0.395008
-1.03726
-1.82382
-2.78051
-3.92474
-5.30024
-6.822
-8.58289
-9.46858
0.790769
0.809505
0.835321
0.863437
0.891893
0.92197
0.953641
0.986718
1.02118
1.05691
1.09372
1.13132
1.16933
1.20721
1.24419
1.28157
1.31968
1.3543
1.38234
1.40203
1.41057
1.40451
1.37977
1.33142
1.2536
1.1394
0.980697
0.768064
0.490608
0.135908
-0.310263
-0.86363
-1.54254
-2.36542
-3.35761
-4.53426
-5.9388
-7.48059
-9.23012
-10.06
0.768634
0.78564
0.809404
0.8349
0.860509
0.887426
0.915524
0.944592
0.97456
1.00526
1.03644
1.06776
1.09875
1.12883
1.15706
1.18461
1.21191
1.2346
1.24944
1.25457
1.24708
1.22343
1.17945
1.11014
1.0096
0.87089
0.685936
0.445409
0.13859
-0.246664
-0.724207
-1.3092
-2.01942
-2.87224
-3.8924
-5.09168
-6.51466
-8.06515
-9.78349
-10.5495
0.746266
0.761569
0.783265
0.806107
0.828859
0.852601
0.877113
0.902164
0.927639
0.953313
0.978882
1.00394
1.02795
1.0503
1.06986
1.0877
1.10434
1.11531
1.11722
1.10816
1.0851
1.04445
0.981959
0.892607
0.770475
0.60867
0.399203
0.132909
-0.200682
-0.613348
-1.11847
-1.73055
-2.46661
-3.34295
-4.38355
-5.59625
-7.02664
-8.57277
-10.2396
-10.9371
0.723716
0.737333
0.756946
0.777112
0.797005
0.817563
0.838483
0.859522
0.880511
0.901177
0.921159
0.940006
0.957091
0.97179
0.982788
0.991054
0.997224
0.996714
0.986005
0.963139
0.92501
0.867968
0.78775
0.679318
0.536789
0.353352
0.121161
-0.16872
-0.526446
-0.963339
-1.49222
-2.12681
-2.88326
-3.77669
-4.83014
-6.04763
-7.47354
-9.00157
-10.5968
-11.2247
0.701032
0.712977
0.730489
0.747965
0.765008
0.78238
0.799713
0.81675
0.833273
0.848958
0.863392
0.876081
0.886316
0.893464
0.896031
0.894894
0.890787
0.879059
0.856064
0.819819
0.767145
0.694375
0.59724
0.470731
0.309034
0.105463
-0.147631
-0.458898
-0.838104
-1.29604
-1.84487
-2.49745
-3.26888
-4.17305
-5.23192
-6.44551
-7.85536
-9.3514
-10.8556
-11.4158
0.678258
0.688543
0.703941
0.71872
0.73293
0.747117
0.760875
0.773932
0.786017
0.796761
0.8057
0.812299
0.81577
0.815483
0.809767
0.799422
0.785244
0.762586
0.727666
0.678493
0.611828
0.524016
0.410806
0.267246
0.0876307
-0.134557
-0.406723
-0.737174
-1.13522
-1.61107
-2.17611
-2.84223
-3.62335
-4.53214
-5.58934
-6.79039
-8.17345
-9.6232
-11.018
-11.5154
0.655438
0.664076
0.677345
0.689428
0.70083
0.71184
0.722046
0.731151
0.738836
0.744689
0.748194
0.748785
0.745594
0.738001
0.724171
0.704842
0.680797
0.647522
0.601058
0.539429
0.45935
0.357201
0.228774
0.0692083
-0.127065
-0.366351
-0.655768
-1.00324
-1.41756
-1.90823
-2.48579
-3.16116
-3.94694
-4.85453
-5.90345
-7.08353
-8.43014
-9.81874
-11.0881
-11.53
0.632615
0.639615
0.650747
0.660138
0.668767
0.676612
0.683299
0.688488
0.691819
0.69284
0.690987
0.685662
0.675921
0.661162
0.639406
0.611311
0.577631
0.534075
0.476469
0.402873
0.309971
0.194205
0.0514305
-0.123093
-0.334767
-0.589661
-0.894551
-1.25691
-1.68495
-2.18746
-2.77406
-3.45463
-4.24033
-5.14123
-6.17566
-7.32685
-8.62873
-9.94099
-11.0723
-11.4669
0.609834
0.615199
0.624194
0.630901
0.636801
0.641497
0.644705
0.646021
0.645056
0.641313
0.634185
0.623049
0.606883
0.585103
0.555625
0.51894
0.475927
0.42244
0.35411
0.269049
0.163926
0.0352709
-0.120985
-0.309436
-0.535274
-0.804286
-1.12287
-1.49804
-1.93738
-2.44893
-3.04131
-3.72327
-4.50452
-5.39366
-6.40734
-7.52251
-8.77361
-9.99461
-10.9796
-11.3352
0.587139
0.590857
0.597731
0.60176
0.604987
0.606551
0.606333
0.603824
0.598626
0.590199
0.577887
0.561054
0.538598
0.509951
0.472965
0.42788
0.375869
0.312796
0.234163
0.138142
0.0213959
-0.119428
-0.288296
-0.489631
-0.728392
-1.01007
-1.34068
-1.72669
-2.17507
-2.69304
-3.28816
-3.96796
-4.74088
-5.61366
-6.59859
-7.67608
-8.87146
-9.98659
-10.8216
-11.1449
0.564601
0.566622
0.571423
0.572771
0.573398
0.571847
0.568268
0.561988
0.552632
0.539607
0.522216
0.499811
0.471211
0.435863
0.3916
0.338355
0.277662
0.205353
0.116846
0.0103868
-0.117363
-0.269615
-0.450227
-0.663427
-0.913929
-1.2069
-1.54792
-1.94294
-2.39823
-2.92017
-3.51526
-4.18967
-4.9509
-5.80399
-6.75187
-7.79468
-8.92638
-9.92509
-10.6126
-10.9076
0.542228
0.542484
0.545287
0.543941
0.542049
0.537398
0.530526
0.520527
0.507089
0.489552
0.467181
0.439328
0.404724
0.362844
0.311534
0.250377
0.181294
0.100101
0.00212428
-0.114275
-0.252451
-0.415443
-0.606994
-0.831113
-1.09225
-1.39523
-1.74519
-2.14751
-2.60776
-3.13147
-3.72409
-4.39032
-5.13683
-5.96837
-6.87382
-7.88305
-8.94296
-9.82345
-10.3721
-10.6374
0.876427
0.881754
0.892343
0.904746
0.915323
0.921331
0.921122
0.85829
0.862006
0.868956
0.876219
0.880745
0.880302
0.874037
0.837376
0.83941
0.842873
0.845448
0.844789
0.839189
0.828273
0.813658
0.814139
0.81446
0.812939
0.807988
0.798444
0.78459
0.787252
0.786387
0.784016
0.779127
0.77091
0.75873
0.743362
0.758409
0.756456
0.75196
0.744557
0.734146
0.720518
0.704741
0.727513
0.724773
0.718785
0.709749
0.698138
0.684058
0.668704
0.69507
0.691854
0.685006
0.675162
0.66321
0.649459
0.635109
0.661673
0.65827
0.651136
0.641194
0.629585
0.616729
0.603747
0.627956
0.624608
0.617657
0.608172
0.597398
0.585794
0.57436
0.59454
0.591427
0.585003
0.57636
0.566733
0.556573
0.546743
0.561993
0.559229
0.553542
0.545962
0.537632
0.528964
0.520684
0.530787
0.528426
0.523572
0.51714
0.510137
0.502918
0.496085
0.501283
0.49933
0.495314
0.490008
0.484261
0.47837
0.472824
0.473721
0.472149
0.468914
0.464644
0.460034
0.455322
0.450902
0.448228
0.446992
0.444442
0.441076
0.437444
0.433734
0.43026
0.424836
0.423883
0.421911
0.419307
0.416496
0.413622
0.410934
0.403498
0.402773
0.40127
0.399282
0.397135
0.394934
0.392876
0.384113
0.383569
0.38244
0.380944
0.379324
0.377661
0.376105
0.366541
0.366136
0.365294
0.364175
0.362964
0.361715
0.360548
0.350626
0.350328
0.349706
0.348879
0.34798
0.347052
0.346184
0.336198
0.335978
0.33552
0.334909
0.334245
0.333556
0.332914
0.323097
0.322937
0.322601
0.322154
0.321666
0.321158
0.320686
0.31116
0.311042
0.310795
0.310466
0.310108
0.309733
0.309386
0.300249
0.300163
0.299983
0.299742
0.299479
0.299203
0.298948
0.290224
0.29016
0.290027
0.28985
0.289656
0.289452
0.289265
0.28098
0.280933
0.280836
0.280705
0.280562
0.280411
0.280272
0.272408
0.272373
0.2723
0.272203
0.272097
0.271984
0.271881
0.264438
0.264412
0.264358
0.264285
0.264206
0.264121
0.264044
0.256996
0.256976
0.256935
0.25688
0.256819
0.256755
0.256697
0.250044
0.250029
0.249998
0.249955
0.249909
0.24986
0.249816
0.243542
0.24353
0.243506
0.243473
0.243437
0.243399
0.243364
0.237486
0.237477
0.237458
0.237432
0.237404
0.237373
0.237346
0.231873
0.231865
0.23185
0.231829
0.231806
0.231782
0.23176
0.226736
0.22673
0.226718
0.226701
0.226682
0.226663
0.226644
0.222116
0.222111
0.222101
0.222087
0.222071
0.222055
0.22204
0.218094
0.21809
0.218081
0.218069
0.218056
0.218042
0.218029
0.214772
0.214769
0.214761
0.21475
0.214739
0.214727
0.214715
0.212308
0.212305
0.212298
0.212288
0.212278
0.212267
0.212256
0.210918
0.210915
0.210908
0.210899
0.210889
0.210879
0.210869
0.913331
0.893225
0.871821
0.853306
0.835317
0.816453
0.796962
0.777284
0.757527
0.737657
0.71767
0.6976
0.677483
0.657345
0.637209
0.617096
0.597032
0.57704
0.557145
0.537375
0.864177
0.84193
0.819702
0.802379
0.786296
0.769322
0.751835
0.734456
0.717249
0.70008
0.682903
0.665748
0.648644
0.631603
0.61463
0.597733
0.580919
0.564193
0.547547
0.530989
0.816236
0.796506
0.777154
0.76216
0.748161
0.733258
0.717877
0.702637
0.687597
0.67262
0.657665
0.642768
0.627958
0.61324
0.598615
0.584086
0.569663
0.555352
0.541163
0.527117
0.771276
0.754002
0.736904
0.723275
0.710522
0.697138
0.683465
0.670008
0.65681
0.643747
0.630774
0.61791
0.605168
0.592543
0.580024
0.567603
0.555274
0.54303
0.530855
0.518757
0.729633
0.714752
0.699957
0.687934
0.676723
0.665113
0.653327
0.641749
0.630414
0.619219
0.608125
0.597141
0.58628
0.575538
0.564907
0.554385
0.54397
0.533662
0.523456
0.513361
0.691292
0.678615
0.665924
0.655373
0.64551
0.635385
0.625146
0.615088
0.605245
0.595542
0.585945
0.576459
0.56709
0.557833
0.54868
0.539622
0.530654
0.521772
0.512961
0.504234
0.656047
0.645337
0.634529
0.625353
0.61676
0.60802
0.599225
0.590598
0.582167
0.573877
0.565698
0.557632
0.549683
0.541846
0.534114
0.526482
0.518944
0.511497
0.504131
0.496853
0.623549
0.614538
0.605367
0.597427
0.589974
0.582446
0.574893
0.567482
0.560236
0.553115
0.546094
0.539171
0.53235
0.525626
0.518991
0.512442
0.505974
0.499582
0.493259
0.487015
0.593463
0.585905
0.578152
0.571333
0.56492
0.558482
0.552043
0.545726
0.539555
0.5335
0.527539
0.521674
0.515904
0.510227
0.504637
0.499129
0.4937
0.488347
0.48306
0.477846
0.565396
0.55906
0.552512
0.546679
0.541187
0.535695
0.530212
0.524831
0.519573
0.514414
0.509339
0.504347
0.499436
0.494606
0.48985
0.485167
0.480553
0.476005
0.471518
0.467098
0.539092
0.533792
0.52828
0.523331
0.518669
0.514022
0.509391
0.504846
0.500408
0.496058
0.491785
0.487586
0.483461
0.479409
0.475426
0.47151
0.467656
0.463864
0.460128
0.456452
0.514258
0.509825
0.505191
0.501009
0.497071
0.493153
0.48925
0.48542
0.481679
0.478015
0.474416
0.470882
0.467412
0.464005
0.460658
0.45737
0.454138
0.450961
0.447835
0.444765
0.490786
0.487094
0.483217
0.479716
0.476423
0.473151
0.469893
0.466697
0.463578
0.460525
0.45753
0.454591
0.451709
0.448883
0.44611
0.443389
0.440719
0.438097
0.435521
0.432995
0.468514
0.465444
0.46221
0.459292
0.456553
0.453833
0.451124
0.448466
0.445874
0.443338
0.440851
0.438414
0.436025
0.433684
0.431391
0.429143
0.42694
0.42478
0.422662
0.420588
0.447454
0.444918
0.44224
0.439831
0.437577
0.435339
0.433109
0.430922
0.428791
0.426709
0.424669
0.422671
0.420716
0.418802
0.41693
0.415097
0.413304
0.411549
0.40983
0.40815
0.427532
0.425445
0.423234
0.421256
0.419411
0.417578
0.41575
0.413959
0.412215
0.410513
0.408846
0.407216
0.405622
0.404064
0.402542
0.401054
0.399601
0.398182
0.396796
0.395444
0.408807
0.407103
0.405293
0.403683
0.402186
0.400699
0.399217
0.397764
0.396352
0.394974
0.393628
0.392312
0.391027
0.389774
0.388551
0.387358
0.386195
0.385062
0.383957
0.382882
0.391231
0.389844
0.388368
0.387063
0.385854
0.384654
0.383455
0.382282
0.381143
0.380033
0.37895
0.377893
0.376862
0.375858
0.374881
0.37393
0.373005
0.372105
0.371231
0.370383
0.374846
0.373726
0.372531
0.371481
0.370512
0.36955
0.36859
0.36765
0.366739
0.365853
0.364989
0.364147
0.363328
0.362532
0.361759
0.361008
0.360279
0.359573
0.358888
0.358226
0.359589
0.358687
0.357722
0.356879
0.356105
0.355336
0.354568
0.353817
0.353091
0.352385
0.351699
0.351031
0.350382
0.349753
0.349144
0.348554
0.347983
0.347431
0.346899
0.346386
0.34546
0.344737
0.343961
0.343288
0.342672
0.342061
0.341451
0.340854
0.340278
0.33972
0.339178
0.338652
0.338141
0.337648
0.337171
0.336711
0.336267
0.33584
0.335429
0.335035
0.332368
0.331789
0.331166
0.330629
0.330139
0.329654
0.329169
0.328696
0.328239
0.327798
0.32737
0.326956
0.326555
0.326169
0.325797
0.325439
0.325095
0.324765
0.324449
0.324148
0.320275
0.319813
0.319315
0.318886
0.318498
0.318113
0.317729
0.317355
0.316994
0.316647
0.31631
0.315985
0.315672
0.315371
0.315081
0.314804
0.314539
0.314285
0.314044
0.313815
0.309076
0.308708
0.308308
0.307966
0.307658
0.307353
0.307048
0.306751
0.306466
0.306192
0.305928
0.305672
0.305427
0.305192
0.304967
0.304752
0.304548
0.304353
0.304169
0.303996
0.298715
0.298421
0.298101
0.297829
0.297584
0.297342
0.2971
0.296865
0.29664
0.296424
0.296216
0.296015
0.295824
0.29564
0.295466
0.295299
0.295142
0.294993
0.294853
0.294722
0.289087
0.288853
0.288596
0.288379
0.288184
0.287991
0.287799
0.287612
0.287434
0.287263
0.287099
0.286942
0.286791
0.286648
0.286512
0.286383
0.286262
0.286148
0.286041
0.285942
0.280138
0.27995
0.279745
0.279571
0.279415
0.279262
0.279109
0.278961
0.27882
0.278684
0.278555
0.278431
0.278313
0.278201
0.278095
0.277995
0.277901
0.277813
0.277732
0.277657
0.271777
0.271628
0.271463
0.271323
0.271199
0.271077
0.270955
0.270837
0.270725
0.270618
0.270515
0.270417
0.270324
0.270236
0.270153
0.270075
0.270002
0.269935
0.269872
0.269815
0.263964
0.263845
0.263713
0.263601
0.263502
0.263405
0.263308
0.263214
0.263124
0.263039
0.262958
0.262881
0.262807
0.262738
0.262673
0.262612
0.262556
0.262503
0.262455
0.262411
0.256635
0.25654
0.256435
0.256345
0.256266
0.256188
0.256111
0.256036
0.255965
0.255898
0.255833
0.255772
0.255714
0.255659
0.255608
0.255561
0.255516
0.255476
0.255438
0.255405
0.249767
0.249692
0.249608
0.249537
0.249474
0.249412
0.249351
0.249292
0.249235
0.249182
0.249131
0.249083
0.249037
0.248994
0.248954
0.248916
0.248881
0.24885
0.248821
0.248795
0.243325
0.243267
0.243201
0.243145
0.243095
0.243046
0.242998
0.242951
0.242906
0.242864
0.242824
0.242786
0.24275
0.242716
0.242684
0.242655
0.242627
0.242602
0.24258
0.242559
0.237315
0.237271
0.237219
0.237175
0.237136
0.237098
0.23706
0.237024
0.236989
0.236956
0.236924
0.236894
0.236866
0.236839
0.236815
0.236791
0.23677
0.23675
0.236732
0.236716
0.231735
0.231702
0.231663
0.231629
0.231599
0.231569
0.23154
0.231512
0.231485
0.231459
0.231435
0.231412
0.23139
0.231369
0.23135
0.231331
0.231315
0.231299
0.231285
0.231272
0.226624
0.2266
0.226571
0.226546
0.226523
0.226501
0.226479
0.226457
0.226437
0.226417
0.226399
0.226381
0.226364
0.226348
0.226333
0.226319
0.226306
0.226293
0.226282
0.226272
0.222023
0.222007
0.221986
0.221968
0.221951
0.221934
0.221918
0.221903
0.221888
0.221873
0.221859
0.221846
0.221833
0.221821
0.221809
0.221798
0.221788
0.221778
0.221769
0.221761
0.218016
0.218005
0.217991
0.217978
0.217966
0.217955
0.217943
0.217932
0.217921
0.217911
0.217901
0.217891
0.217881
0.217872
0.217863
0.217855
0.217847
0.217839
0.217832
0.217825
0.214704
0.214698
0.214689
0.21468
0.214672
0.214665
0.214657
0.214649
0.214641
0.214634
0.214627
0.21462
0.214613
0.214606
0.214599
0.214592
0.214586
0.21458
0.214574
0.214568
0.212247
0.212243
0.212238
0.212233
0.212227
0.212222
0.212217
0.212212
0.212206
0.212201
0.212196
0.21219
0.212185
0.21218
0.212175
0.212169
0.212164
0.212159
0.212154
0.212148
0.210862
0.210859
0.210855
0.210851
0.210848
0.210844
0.21084
0.210836
0.210832
0.210828
0.210823
0.210819
0.210815
0.210811
0.210806
0.210802
0.210797
0.210792
0.210788
0.210783
-10.3459
-10.0458
-9.73855
-9.43341
-9.13689
-8.85133
-8.57616
-8.30972
-8.05052
-7.7977
-7.5509
-7.30982
-7.07399
-6.84278
-6.61546
-6.39141
-6.17012
-5.95123
-5.73441
-5.51936
-5.30577
-5.09338
-4.88194
-4.67131
-4.46139
-4.25218
-4.04374
-3.83623
-3.62988
-3.425
-3.22205
-3.02161
-2.82431
-2.63085
-2.44196
-2.25846
-2.08117
-1.91087
-1.7483
-1.59412
-1.44886
-1.31291
-1.1865
-1.06968
-0.962305
-0.864105
-0.774653
-0.69343
-0.619838
-0.553229
-0.492986
-0.438496
-0.38912
-0.344246
-0.30332
-0.265849
-0.231411
-0.199668
-0.17032
-0.143097
-0.117766
-0.0941353
-0.0720312
-0.0513152
-0.0318979
-0.0136929
0.0033859
0.0194117
0.034461
0.0486101
0.0619099
0.0744062
0.0861375
0.0971329
0.107419
0.116981
0.125843
0.134099
0.141848
0.149179
-10.1165
-9.85574
-9.59155
-9.32657
-9.06132
-8.79739
-8.53613
-8.27834
-8.02471
-7.77593
-7.53247
-7.29433
-7.06111
-6.83213
-6.60671
-6.38422
-6.16424
-5.94643
-5.73053
-5.51626
-5.30334
-5.09151
-4.88056
-4.67033
-4.46076
-4.25185
-4.04367
-3.83638
-3.6302
-3.42547
-3.22265
-3.0223
-2.82508
-2.63167
-2.44282
-2.25934
-2.08204
-1.91173
-1.74914
-1.59491
-1.4496
-1.3136
-1.18712
-1.07023
-0.962785
-0.864514
-0.774994
-0.693707
-0.620056
-0.553393
-0.493102
-0.43857
-0.389158
-0.344253
-0.303303
-0.265812
-0.231358
-0.199604
-0.170247
-0.143018
-0.117683
-0.0940502
-0.0719453
-0.0512297
-0.0318137
-0.0136106
0.0034658
0.0194888
0.0345352
0.0486809
0.0619773
0.0744703
0.0861981
0.0971902
0.107473
0.117032
0.125891
0.134145
0.14189
0.149219
-9.69091
-9.51598
-9.32035
-9.11069
-8.88718
-8.65521
-8.42053
-8.1859
-7.95217
-7.71975
-7.48905
-7.26042
-7.03409
-6.81014
-6.58847
-6.36894
-6.15139
-5.93565
-5.72154
-5.5088
-5.29718
-5.08646
-4.87644
-4.66702
-4.45813
-4.2498
-4.04213
-3.83526
-3.62945
-3.42503
-3.22247
-3.02234
-2.82529
-2.63203
-2.44329
-2.25989
-2.08266
-1.91239
-1.74981
-1.59558
-1.45026
-1.31422
-1.1877
-1.07075
-0.963243
-0.86491
-0.775325
-0.693975
-0.620263
-0.553544
-0.493202
-0.438625
-0.389174
-0.344236
-0.303259
-0.265746
-0.231276
-0.199509
-0.170143
-0.142907
-0.117569
-0.0939341
-0.0718291
-0.0511148
-0.0317012
-0.0135012
0.00357159
0.0195906
0.0346326
0.0487739
0.0620656
0.0745539
0.0862771
0.0972647
0.107543
0.117098
0.125953
0.134203
0.141945
0.149269
-8.91788
-8.83584
-8.73495
-8.62004
-8.48391
-8.32773
-8.15652
-7.97371
-7.78133
-7.58146
-7.37664
-7.16893
-6.9597
-6.74979
-6.53962
-6.32943
-6.11938
-5.90958
-5.70013
-5.49105
-5.28235
-5.074
-4.86595
-4.65818
-4.4507
-4.24359
-4.03695
-3.83099
-3.62594
-3.42218
-3.22019
-3.02057
-2.82395
-2.63105
-2.44261
-2.25948
-2.08246
-1.91235
-1.74991
-1.59578
-1.45053
-1.31453
-1.18803
-1.07108
-0.963565
-0.865202
-0.775578
-0.694184
-0.620425
-0.553657
-0.493269
-0.438651
-0.389163
-0.344194
-0.303189
-0.265655
-0.231167
-0.199388
-0.170014
-0.142772
-0.117431
-0.0937952
-0.071691
-0.050979
-0.0315689
-0.0133731
0.0036949
0.0197087
0.0347454
0.0488811
0.0621672
0.0746498
0.0863675
0.0973498
0.107623
0.117173
0.126023
0.134269
0.142006
0.149326
-7.9285
-7.92617
-7.91095
-7.88273
-7.82984
-7.751
-7.65225
-7.53801
-7.40895
-7.26615
-7.11234
-6.94944
-6.77856
-6.60059
-6.4166
-6.22779
-6.03536
-5.84015
-5.64271
-5.44352
-5.24296
-5.04129
-4.83871
-4.63541
-4.43162
-4.22756
-4.02346
-3.81962
-3.61639
-3.4142
-3.21357
-3.01513
-2.81953
-2.62749
-2.43981
-2.25732
-2.08084
-1.91119
-1.74912
-1.59531
-1.4503
-1.31449
-1.18812
-1.07126
-0.96379
-0.865445
-0.775814
-0.694397
-0.620602
-0.55379
-0.493356
-0.438693
-0.389162
-0.344153
-0.303115
-0.265553
-0.231044
-0.199248
-0.169863
-0.142614
-0.117269
-0.0936314
-0.0715278
-0.0508183
-0.0314123
-0.0132217
0.00384037
0.0198479
0.034878
0.0490071
0.0622865
0.0747623
0.0864733
0.0974491
0.107716
0.117261
0.126105
0.134345
0.142078
0.149393
-6.95096
-6.98748
-7.01496
-7.03521
-7.03871
-7.02088
-6.98479
-6.93482
-6.86979
-6.78631
-6.68582
-6.57225
-6.44759
-6.31225
-6.16677
-6.01254
-5.85128
-5.68387
-5.5107
-5.33233
-5.14944
-4.96268
-4.77262
-4.57982
-4.38493
-4.1884
-3.99064
-3.79214
-3.59345
-3.39512
-3.19774
-3.002
-2.80869
-2.61862
-2.43268
-2.25168
-2.07646
-1.90785
-1.74664
-1.59354
-1.4491
-1.31374
-1.18771
-1.0711
-0.963798
-0.865556
-0.775978
-0.694578
-0.62078
-0.553955
-0.493492
-0.438781
-0.389199
-0.344141
-0.303059
-0.265459
-0.230919
-0.199101
-0.169699
-0.142438
-0.117085
-0.0934446
-0.07134
-0.050632
-0.0312301
-0.0130452
0.00401036
0.0200107
0.0350335
0.0491551
0.0624267
0.0748947
0.0865979
0.097566
0.107826
0.117363
0.126201
0.134434
0.142161
0.14947
-6.08364
-6.1536
-6.20812
-6.24656
-6.27065
-6.2811
-6.2783
-6.26459
-6.23994
-6.20061
-6.14603
-6.07918
-6.00122
-5.91047
-5.80672
-5.6915
-5.56605
-5.43114
-5.28766
-5.13656
-4.97862
-4.81446
-4.64451
-4.46951
-4.29047
-4.10797
-3.92248
-3.73463
-3.54514
-3.35473
-3.16416
-2.97427
-2.78593
-2.60009
-2.41772
-2.23973
-2.06706
-1.90061
-1.7412
-1.58956
-1.44628
-1.31183
-1.18649
-1.07039
-0.963451
-0.865449
-0.776016
-0.694694
-0.620934
-0.554123
-0.493642
-0.438883
-0.389245
-0.344132
-0.303
-0.265355
-0.230778
-0.198934
-0.169512
-0.142237
-0.116875
-0.093229
-0.0711225
-0.0504158
-0.0310187
-0.0128405
0.00420726
0.0201992
0.0352136
0.0493267
0.0625894
0.0750481
0.0867419
0.0977007
0.10795
0.117477
0.126307
0.134534
0.142254
0.149557
-5.26795
-5.35275
-5.43087
-5.50014
-5.5575
-5.60134
-5.63005
-5.64099
-5.63581