/*--------------------------------*- C++ -*----------------------------------*\
  =========                 |
  \\      /  F ield         | OpenFOAM: The Open Source CFD Toolbox
   \\    /   O peration     | Website:  https://openfoam.org
    \\  /    A nd           | Version:  13
     \\/     M anipulation  |
\*---------------------------------------------------------------------------*/
FoamFile
{
    format      ascii;
    class       surfaceScalarField;
    location    "276";
    object      phi;
}
// * * * * * * * * * * * * * * * * * * * * * * * * * * * * * * * * * * * * * //

dimensions      [0 3 -1 0 0 0 0];

internalField   nonuniform List<scalar> 
53213
(
0.000404895
-8.73827e-06
0.000412459
-7.56372e-06
0.000418991
-6.53244e-06
0.000424618
-5.62688e-06
0.000429446
-4.82772e-06
0.000433573
-4.12771e-06
-3.49317e-06
0.000437066
0.00040476
-1.73413e-05
0.0004122
-1.50044e-05
0.000418625
-1.29572e-05
0.000424157
-1.11591e-05
0.000428901
-9.57115e-06
0.000432954
-8.18119e-06
-6.91918e-06
0.00043638
0.000404485
-2.567e-05
0.000411683
-2.22021e-05
0.000417892
-1.91664e-05
0.000423233
-1.65003e-05
0.000427808
-1.41453e-05
0.000431711
-1.20848e-05
-1.02119e-05
0.000435004
0.000404074
-3.35879e-05
0.000410908
-2.90356e-05
0.000416794
-2.50526e-05
0.000421849
-2.15553e-05
0.000426169
-1.84658e-05
0.000429849
-1.5764e-05
-1.33053e-05
0.000432942
0.000403528
-4.09589e-05
0.000409876
-3.53841e-05
0.000415332
-3.05088e-05
0.000420006
-2.62292e-05
0.000423989
-2.24485e-05
0.00042737
-1.91445e-05
-1.61334e-05
0.000430198
0.000402846
-4.76482e-05
0.00040859
-4.11278e-05
0.00041351
-3.54289e-05
0.000417709
-3.04282e-05
0.00042127
-2.60101e-05
0.000424278
-2.21526e-05
-1.8631e-05
0.000426776
0.00040203
-5.35216e-05
0.00040705
-4.61479e-05
0.000411329
-3.97076e-05
0.000414959
-3.40587e-05
0.000418017
-2.9068e-05
0.00042058
-2.47152e-05
-2.07331e-05
0.000422682
0.000401081
-5.84465e-05
0.00040526
-5.03266e-05
0.000408793
-4.32405e-05
0.000411763
-3.70285e-05
0.000414235
-3.15402e-05
0.00041628
-2.676e-05
-2.23756e-05
0.000417922
0.000400002
-6.22917e-05
0.000403223
-5.35474e-05
0.000405907
-4.59246e-05
0.000408124
-3.92461e-05
0.00040993
-3.33459e-05
0.000411385
-2.82153e-05
-2.3495e-05
0.000412505
0.000398792
-6.49274e-05
0.000400941
-5.56957e-05
0.000402674
-4.76582e-05
0.000404049
-4.06214e-05
0.000405109
-3.44052e-05
0.000405904
-2.90106e-05
-2.40285e-05
0.000406438
0.000397455
-6.62262e-05
0.000398418
-5.66581e-05
0.000399101
-4.8341e-05
0.000399545
-4.10656e-05
0.000399779
-3.46395e-05
0.000399845
-2.90763e-05
-2.39146e-05
0.000399731
0.000395993
-6.60623e-05
0.000395658
-5.63233e-05
0.000395191
-4.78745e-05
0.000394617
-4.04912e-05
0.000393949
-3.39716e-05
0.000393217
-2.83437e-05
-2.30928e-05
0.000392395
0.000394407
-6.43124e-05
0.000392666
-5.45823e-05
0.000390953
-4.61619e-05
0.000389274
-3.88125e-05
0.000387629
-3.23257e-05
0.00038603
-2.67455e-05
-2.15036e-05
0.000384441
0.0003927
-6.08556e-05
0.000389445
-5.13279e-05
0.000386392
-4.31086e-05
0.000383525
-3.59454e-05
0.000380827
-2.96277e-05
0.000378297
-2.42155e-05
-1.90894e-05
0.000375883
0.000390875
-5.55738e-05
0.000386002
-4.64555e-05
0.000381516
-3.86219e-05
0.000377378
-3.18077e-05
0.000373555
-2.58052e-05
0.000370028
-2.06885e-05
-1.57943e-05
0.000366733
0.000388934
-4.83516e-05
0.000382342
-3.98632e-05
0.000376331
-3.26113e-05
0.000370843
-2.63193e-05
0.000365825
-2.07873e-05
0.000361237
-1.61005e-05
-1.15645e-05
0.000357007
0.000386882
-3.90766e-05
0.00037847
-3.14517e-05
0.000370848
-2.49888e-05
0.00036393
-1.9402e-05
0.000357648
-1.4505e-05
0.000351936
-1.03889e-05
-6.34949e-06
0.000346721
0.00038472
-2.76395e-05
0.000374392
-2.11246e-05
0.000365073
-1.56692e-05
0.000356652
-1.09806e-05
0.000349038
-6.89155e-06
0.000342141
-3.49218e-06
-1.00934e-07
0.000335893
0.000382451
-1.39342e-05
0.000370115
-8.78802e-06
0.000359015
-4.56915e-06
0.000349016
-9.82377e-07
0.000340008
2.11639e-06
0.000331869
4.6472e-06
7.22475e-06
0.000324543
0.00038008
2.14219e-06
0.000365638
5.6538e-06
0.000352667
8.40194e-06
0.000341007
1.06775e-05
0.000330526
1.25974e-05
0.000321078
1.4096e-05
0.000312678
1.56242e-05
0.000396274
4.07922e-05
0.000359262
3.70119e-05
0.000325685
3.3577e-05
0.000295226
3.04594e-05
0.000267595
2.76312e-05
0.000242529
2.5066e-05
0.000219789
2.27395e-05
0.000199159
2.06299e-05
0.000180442
1.87173e-05
0.000163459
1.69835e-05
0.000148046
1.54121e-05
0.000134058
1.39881e-05
0.00012136
1.2698e-05
0.000109831
1.15293e-05
9.93611e-05
1.047e-05
8.98492e-05
9.51194e-06
8.12044e-05
8.64472e-06
7.33445e-05
7.85995e-06
6.61942e-05
7.15029e-06
5.96853e-05
6.50893e-06
5.37556e-05
5.92964e-06
4.83488e-05
5.40679e-06
4.34136e-05
4.93528e-06
3.89031e-05
4.51048e-06
3.47749e-05
4.12817e-06
3.09904e-05
3.78454e-06
2.75143e-05
3.4761e-06
2.43146e-05
3.19964e-06
2.13624e-05
2.95224e-06
1.86312e-05
2.73118e-06
1.60973e-05
2.53395e-06
1.37391e-05
2.35816e-06
1.15376e-05
2.20153e-06
9.47579e-06
2.0618e-06
7.53923e-06
1.93656e-06
5.71601e-06
1.82322e-06
3.99975e-06
1.71626e-06
2.39355e-06
1.6062e-06
9.49954e-07
1.44359e-06
9.49954e-07
0.000395653
8.15193e-05
0.000358699
7.3966e-05
0.000325174
6.71016e-05
0.000294763
6.08713e-05
0.000267175
5.52193e-05
0.000242148
5.00928e-05
0.000219444
4.54434e-05
0.000198846
4.12275e-05
0.000180158
3.74052e-05
0.000163201
3.39404e-05
0.000147813
3.08e-05
0.000133847
2.79542e-05
0.00012117
2.53758e-05
0.000109659
2.30401e-05
9.92047e-05
2.09241e-05
8.97076e-05
1.9009e-05
8.10766e-05
1.72757e-05
7.32291e-05
1.57075e-05
6.60901e-05
1.42893e-05
5.95915e-05
1.30076e-05
5.36713e-05
1.18498e-05
4.82731e-05
1.08049e-05
4.33459e-05
9.86253e-06
3.88429e-05
9.01349e-06
3.47217e-05
8.24937e-06
3.09437e-05
7.56252e-06
2.74738e-05
6.94597e-06
2.42801e-05
6.39332e-06
2.13337e-05
5.89872e-06
1.86081e-05
5.45676e-06
1.60796e-05
5.06238e-06
1.37269e-05
4.71086e-06
1.15308e-05
4.39765e-06
9.47433e-06
4.11829e-06
7.54269e-06
3.86821e-06
5.72371e-06
3.64219e-06
4.00673e-06
3.43325e-06
2.38987e-06
3.22306e-06
9.27637e-07
2.90583e-06
1.87759e-06
0.000394404
0.000122119
0.000357566
0.000110804
0.000324146
0.000100522
0.000293829
9.11884e-05
0.000266326
8.27215e-05
0.000241377
7.50417e-05
0.000218744
6.80767e-05
0.000198211
6.1761e-05
0.000179581
5.6035e-05
0.000162677
5.08444e-05
0.000147337
4.61399e-05
0.000133414
4.18767e-05
0.000120776
3.8014e-05
0.000109301
3.45151e-05
9.88796e-05
3.13455e-05
8.94122e-05
2.84764e-05
8.08081e-05
2.58797e-05
7.29852e-05
2.35304e-05
6.58685e-05
2.1406e-05
5.93903e-05
1.94858e-05
5.34887e-05
1.77514e-05
4.81077e-05
1.61859e-05
4.31962e-05
1.47741e-05
3.87076e-05
1.3502e-05
3.45999e-05
1.23571e-05
3.08344e-05
1.1328e-05
2.73763e-05
1.04041e-05
2.41936e-05
9.57594e-06
2.12577e-05
8.83469e-06
1.85422e-05
8.17224e-06
1.60235e-05
7.58105e-06
1.36803e-05
7.05403e-06
1.14936e-05
6.58442e-06
9.44624e-06
6.16562e-06
7.52333e-06
5.79111e-06
5.7118e-06
5.45372e-06
4.00049e-06
5.14456e-06
2.38644e-06
4.83711e-06
9.24792e-07
4.36748e-06
2.80238e-06
0.000392532
0.000162529
0.000355866
0.00014747
0.000322603
0.000133785
0.000292427
0.000121364
0.000265053
0.000110095
0.000240221
9.98743e-05
0.000217693
9.06045e-05
0.000197255
8.21988e-05
0.000178712
7.4578e-05
0.000161887
6.76697e-05
0.000146619
6.14083e-05
0.000132761
5.57342e-05
0.000120182
5.05932e-05
0.000108761
4.59364e-05
9.83881e-05
4.17182e-05
8.8965e-05
3.78996e-05
8.04012e-05
3.44435e-05
7.26149e-05
3.13168e-05
6.55316e-05
2.84892e-05
5.90838e-05
2.59336e-05
5.32101e-05
2.36251e-05
4.78546e-05
2.15414e-05
4.29664e-05
1.96622e-05
3.84995e-05
1.7969e-05
3.44116e-05
1.6445e-05
3.06646e-05
1.5075e-05
2.72237e-05
1.3845e-05
2.40572e-05
1.27424e-05
2.11365e-05
1.17554e-05
1.84355e-05
1.08733e-05
1.59306e-05
1.00859e-05
1.36008e-05
9.38387e-06
1.14269e-05
8.7583e-06
9.39202e-06
8.20051e-06
7.48101e-06
7.70213e-06
5.68048e-06
7.25425e-06
3.97908e-06
6.84596e-06
2.37405e-06
6.44214e-06
9.19753e-07
5.82177e-06
3.72214e-06
0.000390041
0.000202686
0.000353604
0.000183907
0.000320548
0.000166841
0.000290561
0.000151351
0.000263358
0.000137298
0.000238681
0.000124552
0.000216293
0.000112992
0.000195983
0.000102509
0.000177555
9.30054e-05
0.000160835
8.43901e-05
0.000145662
7.65815e-05
0.00013189
6.95054e-05
0.00011939
6.3094e-05
0.00010804
5.72865e-05
9.77317e-05
5.2026e-05
8.83674e-05
4.72639e-05
7.98572e-05
4.29538e-05
7.21195e-05
3.90544e-05
6.50807e-05
3.55281e-05
5.86734e-05
3.23408e-05
5.28367e-05
2.94618e-05
4.7515e-05
2.68631e-05
4.2658e-05
2.45193e-05
3.82196e-05
2.24074e-05
3.41581e-05
2.05065e-05
3.04356e-05
1.87975e-05
2.70174e-05
1.72632e-05
2.38722e-05
1.58876e-05
2.09714e-05
1.46562e-05
1.82893e-05
1.35554e-05
1.58025e-05
1.25727e-05
1.34898e-05
1.16965e-05
1.13324e-05
1.09157e-05
9.31339e-06
1.02196e-05
7.41755e-06
9.59796e-06
5.63141e-06
9.0404e-06
3.9435e-06
8.53386e-06
2.3515e-06
8.03414e-06
9.09688e-07
7.26358e-06
4.63182e-06
0.000386934
0.000242528
0.000350783
0.000220057
0.000317986
0.000199638
0.000288234
0.000181103
0.000261244
0.000164289
0.000236759
0.000149037
0.000214547
0.000135204
0.000194395
0.000122661
0.000176112
0.000111289
0.000159522
0.00010098
0.000144467
9.16362e-05
0.000130804
8.31689e-05
0.0001184
7.54972e-05
0.000107139
6.85478e-05
9.69119e-05
6.22532e-05
8.76209e-05
5.65548e-05
7.91773e-05
5.13974e-05
7.15004e-05
4.67313e-05
6.45169e-05
4.25116e-05
5.81601e-05
3.86976e-05
5.23695e-05
3.52524e-05
4.70901e-05
3.21425e-05
4.22717e-05
2.93376e-05
3.78689e-05
2.68102e-05
3.38403e-05
2.45351e-05
3.01481e-05
2.24897e-05
2.67582e-05
2.06531e-05
2.36394e-05
1.90064e-05
2.07634e-05
1.75321e-05
1.81047e-05
1.62141e-05
1.56399e-05
1.50374e-05
1.33484e-05
1.39881e-05
1.12111e-05
1.30529e-05
9.2114e-06
1.22193e-05
7.33407e-06
1.14753e-05
5.56562e-06
1.08088e-05
3.89459e-06
1.02049e-05
2.31919e-06
9.60954e-06
8.94553e-07
8.68822e-06
5.52638e-06
0.000383217
0.000281993
0.000347408
0.000255866
0.000314921
0.000232125
0.000285449
0.000210575
0.000258714
0.000191024
0.00023446
0.000173291
0.000212457
0.000157207
0.000192495
0.000142623
0.000174384
0.0001294
0.00015795
0.000117413
0.000143037
0.000106549
0.000129502
9.67038e-05
0.000117216
8.77834e-05
0.000106061
7.9703e-05
9.59302e-05
7.23841e-05
8.67269e-05
6.57581e-05
7.83631e-05
5.97612e-05
7.07588e-05
5.43356e-05
6.38414e-05
4.9429e-05
5.7545e-05
4.49941e-05
5.18096e-05
4.09879e-05
4.65806e-05
3.73715e-05
4.18085e-05
3.41097e-05
3.74483e-05
3.11704e-05
3.34589e-05
2.85245e-05
2.98031e-05
2.61455e-05
2.64469e-05
2.40093e-05
2.33596e-05
2.20938e-05
2.05131e-05
2.03786e-05
1.78821e-05
1.88451e-05
1.54436e-05
1.74759e-05
1.3177e-05
1.62547e-05
1.10637e-05
1.51663e-05
9.08675e-06
1.41962e-05
7.2313e-06
1.33307e-05
5.48386e-06
1.25563e-05
3.83305e-06
1.18557e-05
2.27772e-06
1.11649e-05
8.74486e-07
1.00915e-05
6.40086e-06
0.000378895
0.00032102
0.000343483
0.000291278
0.000311357
0.000264252
0.000282212
0.00023972
0.000255772
0.000217464
0.000231786
0.000197276
0.000210027
0.000178967
0.000190286
0.000162364
0.000172375
0.000147311
0.000156123
0.000133665
0.000141375
0.000121297
0.000127989
0.000110089
0.000115839
9.99339e-05
0.000104807
9.07349e-05
9.47883e-05
8.24028e-05
8.56869e-05
7.48595e-05
7.74158e-05
6.80323e-05
6.98959e-05
6.18555e-05
6.30555e-05
5.62694e-05
5.68292e-05
5.12203e-05
5.11579e-05
4.66592e-05
4.59876e-05
4.25418e-05
4.12693e-05
3.8828e-05
3.69585e-05
3.54812e-05
3.30147e-05
3.24683e-05
2.94011e-05
2.97592e-05
2.6084e-05
2.73264e-05
2.30332e-05
2.51446e-05
2.02209e-05
2.31909e-05
1.76221e-05
2.14439e-05
1.5214e-05
1.98839e-05
1.29763e-05
1.84924e-05
1.08905e-05
1.72522e-05
8.93993e-06
1.61468e-05
7.10976e-06
1.51609e-05
5.38665e-06
1.42794e-05
3.75937e-06
1.3483e-05
2.22751e-06
1.26967e-05
8.49696e-07
1.14693e-05
7.25056e-06
0.000373976
0.000359549
0.000339016
0.000326238
0.000307299
0.000295968
0.000278526
0.000268493
0.000252423
0.000243567
0.000228743
0.000220956
0.00020726
0.00020045
0.00018777
0.000181854
0.000170087
0.000164994
0.000154042
0.000149711
0.000139482
0.000135858
0.000126267
0.000123304
0.000114271
0.00011193
0.000103379
0.000101626
9.34882e-05
9.22939e-05
8.45027e-05
8.3845e-05
7.63371e-05
7.6198e-05
6.89132e-05
6.92793e-05
6.21603e-05
6.30224e-05
5.60139e-05
5.73667e-05
5.04155e-05
5.22576e-05
4.53119e-05
4.76454e-05
4.06549e-05
4.3485e-05
3.64003e-05
3.97357e-05
3.25084e-05
3.63602e-05
2.89427e-05
3.33249e-05
2.56702e-05
3.05989e-05
2.26608e-05
2.8154e-05
1.98873e-05
2.59644e-05
1.73251e-05
2.40062e-05
1.49515e-05
2.22574e-05
1.27466e-05
2.06973e-05
1.0692e-05
1.93068e-05
8.7713e-06
1.80675e-05
6.96981e-06
1.69624e-05
5.27434e-06
1.59749e-05
3.67387e-06
1.50835e-05
2.1689e-06
1.42017e-05
8.20444e-07
1.28177e-05
8.071e-06
0.000368467
0.000397519
0.000334014
0.000360691
0.000302756
0.000327226
0.000274398
0.000296851
0.000248673
0.000269292
0.000225334
0.000244294
0.000204162
0.000221622
0.000184953
0.000201063
0.000167525
0.000182422
0.000151712
0.000165524
0.000137361
0.000150208
0.000124337
0.000136328
0.000112514
0.000123752
0.00010178
0.000112361
9.20317e-05
0.000102042
8.31761e-05
9.27006e-05
7.51286e-05
8.42455e-05
6.78123e-05
7.65956e-05
6.11574e-05
6.96773e-05
5.51004e-05
6.34238e-05
4.95836e-05
5.77744e-05
4.45548e-05
5.26742e-05
3.99662e-05
4.80736e-05
3.57747e-05
4.39272e-05
3.19407e-05
4.01941e-05
2.84287e-05
3.6837e-05
2.52059e-05
3.38216e-05
2.2243e-05
3.1117e-05
1.95129e-05
2.86944e-05
1.69915e-05
2.65277e-05
1.46565e-05
2.45923e-05
1.24882e-05
2.28657e-05
1.04684e-05
2.13265e-05
8.58112e-06
1.99548e-05
6.81169e-06
1.87318e-05
5.14713e-06
1.76394e-05
3.57677e-06
1.66538e-05
2.10213e-06
1.56763e-05
7.86934e-07
1.41329e-05
8.85794e-06
0.000362377
0.000434873
0.000328483
0.000394586
0.000297732
0.000357977
0.000269835
0.000324748
0.000244526
0.000294601
0.000221566
0.000267254
0.000200736
0.000242452
0.000181839
0.00021996
0.000164693
0.000199568
0.000149135
0.000181082
0.000135017
0.000164326
0.000122203
0.000149142
0.000110572
0.000135384
0.000100012
0.000122921
9.04213e-05
0.000111633
8.17093e-05
0.000101413
7.37923e-05
9.21624e-05
6.65949e-05
8.37931e-05
6.00483e-05
7.6224e-05
5.409e-05
6.9382e-05
4.86635e-05
6.32008e-05
4.37173e-05
5.76205e-05
3.92044e-05
5.25864e-05
3.50824e-05
4.80492e-05
3.13126e-05
4.3964e-05
2.78598e-05
4.02898e-05
2.4692e-05
3.69894e-05
2.17803e-05
3.40287e-05
1.90982e-05
3.13766e-05
1.66217e-05
2.90041e-05
1.43293e-05
2.68847e-05
1.22014e-05
2.49937e-05
1.02201e-05
2.33078e-05
8.3696e-06
2.18053e-05
6.63556e-06
2.04659e-05
5.00515e-06
1.92698e-05
3.46812e-06
1.81908e-05
2.02739e-06
1.71171e-05
7.4931e-07
1.5411e-05
9.60725e-06
0.000355716
0.000471552
0.000322433
0.000427868
0.000292237
0.000388173
0.000264843
0.000352143
0.00023999
0.000319454
0.000217443
0.000289801
0.000196989
0.000262906
0.000178431
0.000238518
0.000161594
0.000216405
0.000146316
0.00019636
0.000132452
0.00017819
0.000119869
0.000161725
0.000108447
0.000146806
9.8077e-05
0.000133291
8.86594e-05
0.00012105
8.01044e-05
0.000109968
7.23303e-05
9.99365e-05
6.52628e-05
9.08605e-05
5.88347e-05
8.26522e-05
5.29845e-05
7.52322e-05
4.76567e-05
6.85287e-05
4.28007e-05
6.24765e-05
3.83706e-05
5.70165e-05
3.43246e-05
5.20952e-05
3.06249e-05
4.76637e-05
2.72368e-05
4.36778e-05
2.41292e-05
4.0097e-05
2.12734e-05
3.68845e-05
1.86436e-05
3.40064e-05
1.62163e-05
3.14314e-05
1.39704e-05
2.91307e-05
1.18864e-05
2.70776e-05
9.94719e-06
2.5247e-05
8.13693e-06
2.36155e-05
6.44156e-06
2.21612e-05
4.84839e-06
2.0863e-05
3.34792e-06
1.96913e-05
1.94473e-06
1.85203e-05
7.07649e-07
1.66481e-05
1.03149e-05
0.000348494
0.000507499
0.000315874
0.000460488
0.00028628
0.000417768
0.00025943
0.000378992
0.000235072
0.000343812
0.000212973
0.000311899
0.000192925
0.000282955
0.000174736
0.000256707
0.000158234
0.000232908
0.00014326
0.000211334
0.000129671
0.000191779
0.000117338
0.000174057
0.000106143
0.000158001
9.5979e-05
0.000143455
8.67487e-05
0.00013028
7.8364e-05
0.000118352
7.07447e-05
0.000107556
6.38182e-05
9.7787e-05
5.75184e-05
8.8952e-05
5.17854e-05
8.09653e-05
4.65645e-05
7.37495e-05
4.18064e-05
6.72346e-05
3.7466e-05
6.13569e-05
3.35024e-05
5.60587e-05
2.98786e-05
5.12875e-05
2.65607e-05
4.69957e-05
2.35181e-05
4.31397e-05
2.07228e-05
3.96797e-05
1.81497e-05
3.65795e-05
1.57757e-05
3.38054e-05
1.358e-05
3.13264e-05
1.15438e-05
2.91138e-05
9.64999e-06
2.71408e-05
7.88328e-06
2.53822e-05
6.22981e-06
2.38147e-05
4.67695e-06
2.24159e-05
3.21621e-06
2.11521e-05
1.85385e-06
1.98826e-05
6.61824e-07
1.78401e-05
1.09767e-05
0.000340722
0.00054266
0.000308816
0.000492394
0.000279868
0.000446715
0.000253605
0.000405255
0.000229778
0.000367639
0.000208162
0.000333515
0.000188552
0.000302565
0.00017076
0.000274499
0.000154617
0.000249051
0.00013997
0.000225981
0.000126678
0.000205071
0.000114614
0.000186121
0.000103663
0.000168951
9.3721e-05
0.000153398
8.46923e-05
0.000139309
7.64907e-05
0.000126554
6.90381e-05
0.000115008
6.22632e-05
0.000104562
5.61016e-05
9.51136e-05
5.04945e-05
8.65723e-05
4.53888e-05
7.88553e-05
4.07359e-05
7.18875e-05
3.64919e-05
6.56009e-05
3.2617e-05
5.99337e-05
2.90748e-05
5.48298e-05
2.58323e-05
5.02382e-05
2.28596e-05
4.61124e-05
2.01294e-05
4.24099e-05
1.76172e-05
3.90918e-05
1.53003e-05
3.61222e-05
1.31586e-05
3.34681e-05
1.11736e-05
3.10988e-05
9.32871e-06
2.89858e-05
7.6088e-06
2.71021e-05
6.0004e-06
2.54231e-05
4.49105e-06
2.39252e-05
3.07322e-06
2.25699e-05
1.75442e-06
2.12014e-05
6.11599e-07
1.89829e-05
1.15883e-05
0.000332413
0.00057698
0.000301269
0.000523538
0.000273013
0.000474971
0.000247377
0.000430892
0.000224119
0.000390898
0.000203019
0.000354616
0.000183876
0.000321708
0.000166508
0.000291866
0.00015075
0.000264809
0.000136452
0.000240279
0.000123477
0.000218046
0.000111701
0.000197897
0.000101011
0.000179641
9.13064e-05
0.000163103
8.24932e-05
0.000148122
7.44875e-05
0.00013456
6.7213e-05
0.000122283
6.06003e-05
0.000111175
5.45863e-05
0.000101128
4.9114e-05
9.20447e-05
4.41312e-05
8.38381e-05
3.95908e-05
7.64279e-05
3.54499e-05
6.97417e-05
3.16696e-05
6.37139e-05
2.82146e-05
5.82848e-05
2.50526e-05
5.34001e-05
2.21546e-05
4.90104e-05
1.9494e-05
4.50705e-05
1.70466e-05
4.15391e-05
1.47908e-05
3.8378e-05
1.27067e-05
3.55522e-05
1.07764e-05
3.30292e-05
8.98358e-06
3.07786e-05
7.31364e-06
2.87721e-05
5.75339e-06
2.69834e-05
4.29067e-06
2.53879e-05
2.91883e-06
2.39417e-05
1.64645e-06
2.24738e-05
5.56969e-07
2.00724e-05
1.21453e-05
0.00032358
0.000610407
0.000293247
0.000553871
0.000265726
0.000502492
0.000240756
0.000455862
0.000218102
0.000413552
0.000197549
0.000375168
0.000178904
0.000340354
0.000161987
0.000308783
0.000146639
0.000280157
0.000132712
0.000254206
0.000120074
0.000230684
0.000108603
0.000209367
9.81917e-05
0.000190053
8.87389e-05
0.000172556
8.01548e-05
0.000156707
7.23573e-05
0.000142357
6.52722e-05
0.000129368
5.88319e-05
0.000117615
5.29749e-05
0.000106984
4.76457e-05
9.73739e-05
4.27936e-05
8.86902e-05
3.83728e-05
8.08488e-05
3.43414e-05
7.37731e-05
3.06617e-05
6.73936e-05
2.72993e-05
6.16473e-05
2.42228e-05
5.64766e-05
2.14041e-05
5.18292e-05
1.88172e-05
4.76574e-05
1.64388e-05
4.39174e-05
1.42477e-05
4.05691e-05
1.22247e-05
3.75752e-05
1.03523e-05
3.49015e-05
8.61485e-06
3.2516e-05
6.99793e-06
3.0389e-05
5.48879e-06
2.84925e-05
4.07566e-06
2.68011e-05
2.75272e-06
2.52647e-05
1.5299e-06
2.36966e-05
4.97917e-07
2.11044e-05
1.26432e-05
0.000314236
0.000642892
0.000284761
0.000583347
0.000258017
0.000529236
0.000233751
0.000480128
0.000211736
0.000435567
0.000191763
0.00039514
0.000173644
0.000358474
0.000157204
0.000325222
0.000142289
0.000295073
0.000128755
0.00026774
0.000116473
0.000242966
0.000105326
0.000220514
9.52085e-05
0.000200171
8.60225e-05
0.000181742
7.76808e-05
0.000165048
7.01036e-05
0.000149934
6.32188e-05
0.000136253
5.69608e-05
0.000123873
5.12699e-05
0.000112675
4.6092e-05
0.000102552
4.13782e-05
9.3404e-05
3.70837e-05
8.51432e-05
3.31681e-05
7.76887e-05
2.95947e-05
7.0967e-05
2.63301e-05
6.49119e-05
2.3344e-05
5.94626e-05
2.0609e-05
5.45643e-05
1.81e-05
5.01664e-05
1.57943e-05
4.62231e-05
1.36716e-05
4.26918e-05
1.17131e-05
3.95338e-05
9.90187e-06
3.67127e-05
8.22273e-06
3.41952e-05
6.66178e-06
3.19499e-05
5.20657e-06
2.99477e-05
3.84584e-06
2.81618e-05
2.57465e-06
2.65359e-05
1.40459e-06
2.48667e-05
4.34389e-07
2.20746e-05
1.30776e-05
0.000304396
0.000674389
0.000275825
0.000611918
0.000249899
0.000555162
0.000226374
0.000503652
0.000205032
0.000456909
0.00018567
0.000414502
0.000168104
0.00037604
0.000152167
0.000341159
0.000137707
0.000309532
0.000124587
0.000280861
0.000112681
0.000254872
0.000101875
0.00023132
9.20664e-05
0.000209979
8.31614e-05
0.000190647
7.50749e-05
0.000173135
6.77297e-05
0.000157279
6.10559e-05
0.000142927
5.49898e-05
0.000129939
4.94737e-05
0.000118191
4.44553e-05
0.00010757
3.98869e-05
9.79724e-05
3.57254e-05
8.93047e-05
3.19317e-05
8.14824e-05
2.84702e-05
7.44286e-05
2.53085e-05
6.80735e-05
2.24174e-05
6.23537e-05
1.97704e-05
5.72113e-05
1.73432e-05
5.25936e-05
1.51141e-05
4.84522e-05
1.30631e-05
4.47428e-05
1.11723e-05
4.14246e-05
9.42533e-06
3.84597e-05
7.80746e-06
3.58131e-05
6.30528e-06
3.34521e-05
4.90672e-06
3.13463e-05
3.60104e-06
2.94675e-05
2.38431e-06
2.77526e-05
1.27021e-06
2.59808e-05
3.66245e-07
2.29786e-05
1.34438e-05
0.000294076
0.000704856
0.000266453
0.00063954
0.000241383
0.000580232
0.000218636
0.0005264
0.000197999
0.000477545
0.000179278
0.000433224
0.000162292
0.000393025
0.000146883
0.000356569
0.000132901
0.000323514
0.000120215
0.000293547
0.000108703
0.000266384
9.82543e-05
0.000241768
8.87703e-05
0.000219463
8.016e-05
0.000199257
7.23412e-05
0.000180953
6.52393e-05
0.000164381
5.87867e-05
0.000149379
5.29219e-05
0.000135804
4.75892e-05
0.000123524
4.27379e-05
0.000112421
3.83221e-05
0.000102388
3.43001e-05
9.33267e-05
3.0634e-05
8.51484e-05
2.72897e-05
7.77729e-05
2.42359e-05
7.11273e-05
2.14443e-05
6.51452e-05
1.88894e-05
5.97662e-05
1.6548e-05
5.4935e-05
1.43989e-05
5.06013e-05
1.24229e-05
4.67187e-05
1.06029e-05
4.32446e-05
8.92312e-06
4.01395e-05
7.36929e-06
3.73669e-05
5.92853e-06
3.48929e-05
4.58918e-06
3.26856e-05
3.34105e-06
3.07156e-05
2.1814e-06
2.89122e-05
1.12643e-06
2.70357e-05
2.93291e-07
2.38117e-05
1.37371e-05
0.000283286
0.000734249
0.000256664
0.000666162
0.000232485
0.000604411
0.000210549
0.000548336
0.00019065
0.000497445
0.000172597
0.000451277
0.000156219
0.000409403
0.00014136
0.000371428
0.000127878
0.000336995
0.000115646
0.00030578
0.000104545
0.000277485
9.44701e-05
0.000251843
8.53252e-05
0.000228608
7.70229e-05
0.000207559
6.94839e-05
0.000188492
6.26362e-05
0.000171229
5.64148e-05
0.000155601
5.07604e-05
0.000141458
4.56192e-05
0.000128665
4.09425e-05
0.000117098
3.66861e-05
0.000106645
3.28097e-05
9.72031e-05
2.9277e-05
8.86811e-05
2.6055e-05
8.09949e-05
2.31138e-05
7.40686e-05
2.04261e-05
6.78329e-05
1.79673e-05
6.22249e-05
1.57152e-05
5.71872e-05
1.36495e-05
5.26671e-05
1.17518e-05
4.86164e-05
1.00055e-05
4.49908e-05
8.39564e-06
4.17494e-05
6.90847e-06
3.88541e-05
5.53164e-06
3.62697e-05
4.25389e-06
3.39634e-05
3.06567e-06
3.19038e-05
1.96559e-06
3.00123e-05
9.72859e-07
2.80285e-05
2.15245e-07
2.45693e-05
1.39524e-05
0.000272064
0.000762517
-0.000300332
0.000246458
0.000691768
0.000223216
0.000627653
0.000202126
0.000569425
0.000182994
0.000516577
0.000165638
0.000468634
0.000149892
0.000425148
0.000135607
0.000385713
0.000122646
0.000349956
0.000110886
0.00031754
0.000100214
0.000288157
9.0528e-05
0.000261528
8.17365e-05
0.0002374
7.37549e-05
0.000215541
6.65073e-05
0.00019574
5.99245e-05
0.000177812
5.39438e-05
0.000161581
4.85085e-05
0.000146894
4.35668e-05
0.000133607
3.90719e-05
0.000121593
3.49813e-05
0.000110735
3.12565e-05
0.000100928
2.78626e-05
9.2075e-05
2.47679e-05
8.40896e-05
2.19438e-05
7.68928e-05
1.93641e-05
7.04126e-05
1.70053e-05
6.45837e-05
1.4846e-05
5.93464e-05
1.28669e-05
5.46462e-05
1.10504e-05
5.04329e-05
9.38067e-06
4.66606e-05
7.84331e-06
4.32867e-05
6.42527e-06
4.02721e-05
5.11471e-06
3.75803e-05
3.90082e-06
3.51773e-05
2.7747e-06
3.30299e-05
1.73651e-06
3.10505e-05
8.09107e-07
2.89559e-05
1.31685e-07
2.52467e-05
1.40841e-05
0.000260394
0.000789601
-0.000287478
0.000235853
0.00071631
0.000213587
0.000649919
0.00019338
0.000589633
0.000175045
0.000534911
0.000158412
0.000485267
0.000143323
0.000440238
0.000129633
0.000399403
0.000117213
0.000362377
0.000105943
0.00032881
9.57159e-05
0.000298384
8.64344e-05
0.00027081
7.80096e-05
0.000245824
7.03612e-05
0.000223189
6.34162e-05
0.000202685
5.71082e-05
0.00018412
5.13775e-05
0.000167312
4.61696e-05
0.000152101
4.1435e-05
0.000138342
3.71288e-05
0.000125899
3.32104e-05
0.000114654
2.96429e-05
0.000104495
2.6393e-05
9.53249e-05
2.34303e-05
8.70523e-05
2.07276e-05
7.95956e-05
1.82598e-05
7.28804e-05
1.60045e-05
6.6839e-05
1.39414e-05
6.14096e-05
1.2052e-05
5.65356e-05
1.03195e-05
5.21653e-05
8.72896e-06
4.82511e-05
7.26658e-06
4.47491e-05
5.91996e-06
4.16187e-05
4.67786e-06
3.88224e-05
3.5299e-06
3.63252e-05
2.46791e-06
3.40919e-05
1.49382e-06
3.20246e-05
6.34947e-07
2.98148e-05
4.17642e-08
2.58399e-05
1.41258e-05
0.000248318
0.000815471
-0.000274189
0.000224872
0.000739755
0.000203614
0.000671177
0.000184322
0.000608925
0.000166813
0.000552419
0.000150929
0.000501151
0.00013652
0.000454647
0.000123447
0.000412475
0.000111586
0.000374237
0.000100824
0.000339572
9.10584e-05
0.00030815
8.21953e-05
0.000279673
7.41504e-05
0.000253869
6.68468e-05
0.000230493
6.02151e-05
0.000209317
5.41918e-05
0.000190143
4.87199e-05
0.000172784
4.37474e-05
0.000157074
3.92271e-05
0.000142862
3.51162e-05
0.00013001
3.13759e-05
0.000118394
2.79712e-05
0.0001079
2.48702e-05
9.84259e-05
2.20442e-05
8.98783e-05
1.94669e-05
8.21728e-05
1.71148e-05
7.52325e-05
1.49665e-05
6.89873e-05
1.30027e-05
6.33734e-05
1.12058e-05
5.83325e-05
9.56001e-06
5.38111e-05
8.05104e-06
4.97601e-05
6.66591e-06
4.61343e-05
5.39285e-06
4.28918e-05
4.22119e-06
3.9994e-05
3.14108e-06
3.74053e-05
2.14513e-06
3.50879e-05
1.23729e-06
3.29324e-05
4.49772e-07
3.06023e-05
-5.46163e-08
2.63443e-05
1.40712e-05
0.000235847
0.000840087
-0.000260463
0.000213536
0.000762067
0.000193315
0.000691398
0.000174966
0.000627275
0.000158312
0.000569073
0.000143202
0.000516261
0.000129494
0.000468355
0.000117059
0.000424911
0.000105776
0.00038552
9.55385e-05
0.000349809
8.62486e-05
0.00031744
7.78175e-05
0.000288104
7.01647e-05
0.000261522
6.32174e-05
0.00023744
5.69091e-05
0.000215625
5.11797e-05
0.000195873
4.59749e-05
0.000177989
4.12455e-05
0.000161803
3.69464e-05
0.000147161
3.30371e-05
0.000133919
2.94808e-05
0.00012195
2.6244e-05
0.000111137
2.32967e-05
0.000101373
2.06114e-05
9.25636e-05
1.81636e-05
8.46207e-05
1.59307e-05
7.74654e-05
1.38926e-05
7.10254e-05
1.2031e-05
6.5235e-05
1.03293e-05
6.00342e-05
8.7727e-06
5.53677e-05
7.34759e-06
5.11852e-05
6.0418e-06
4.74401e-05
4.84424e-06
4.40893e-05
3.74487e-06
4.10934e-05
2.73433e-06
3.84159e-05
1.80615e-06
3.60161e-05
9.66789e-07
3.37718e-05
2.52565e-07
3.13165e-05
-1.55135e-07
2.6752e-05
1.39161e-05
0.000223003
0.000863406
-0.000246322
0.000201862
0.000783208
0.000182706
0.000710554
0.000165328
0.000644653
0.000149555
0.000584846
0.000135242
0.000530573
0.000122257
0.00048134
0.000110478
0.000436691
9.97904e-05
0.000396208
9.00932e-05
0.000359507
8.12936e-05
0.000326239
7.33076e-05
0.00029609
6.60589e-05
0.000268771
5.94783e-05
0.000244021
5.35032e-05
0.0002216
4.80765e-05
0.000201299
4.3147e-05
0.000182918
3.86678e-05
0.000166283
3.45966e-05
0.000151232
3.08948e-05
0.000137621
2.75277e-05
0.000125317
2.44638e-05
0.000114201
2.16746e-05
0.000104162
1.91343e-05
9.51039e-05
1.68195e-05
8.69355e-05
1.47091e-05
7.95757e-05
1.27843e-05
7.29503e-05
1.10276e-05
6.69917e-05
9.4237e-06
6.16381e-05
7.95848e-06
5.68329e-05
6.61932e-06
5.25244e-05
5.39478e-06
4.86646e-05
4.27448e-06
4.52096e-05
3.24904e-06
4.21188e-05
2.30965e-06
3.93553e-05
1.45083e-06
3.68749e-05
6.82636e-07
3.454e-05
4.17184e-08
3.19574e-05
-2.5661e-07
2.70503e-05
1.36595e-05
0.000209805
0.000885389
-0.000231789
0.000189868
0.000803146
0.000171805
0.000728617
0.000155422
0.000661036
0.000140554
0.000599714
0.000127061
0.000544066
0.00011482
0.000493581
0.000103714
0.000447796
9.36389e-05
0.000406283
8.4497e-05
0.000368648
7.62013e-05
0.000334535
6.86726e-05
0.000303619
6.1839e-05
0.000275604
5.56355e-05
0.000250224
5.00027e-05
0.000227233
4.4887e-05
0.000206415
4.02402e-05
0.000187565
3.60183e-05
0.000170505
3.21811e-05
0.000155069
2.86925e-05
0.00014111
2.55198e-05
0.00012849
2.26334e-05
0.000117087
2.00065e-05
0.000106789
1.76148e-05
9.74956e-05
1.54365e-05
8.91138e-05
1.34519e-05
8.15603e-05
1.1643e-05
7.47591e-05
9.9939e-06
6.86408e-05
8.49001e-06
6.3142e-05
7.11829e-06
5.82047e-05
5.86696e-06
5.37757e-05
4.72539e-06
4.98062e-05
3.68392e-06
4.62511e-05
2.73384e-06
4.30689e-05
1.86703e-06
4.02221e-05
1.07905e-06
3.76629e-05
3.83931e-07
3.52351e-05
-1.82809e-07
3.25242e-05
-3.56958e-07
2.72245e-05
1.33025e-05
0.000196272
0.000906003
-0.000216886
0.000177571
0.000821847
0.000160628
0.00074556
0.000145265
0.000676399
0.000131324
0.000613655
0.000118672
0.000556717
0.000107193
0.00050506
9.67791e-05
0.000458211
8.7331e-05
0.000415731
7.87584e-05
0.000377221
7.09794e-05
0.000342314
6.39197e-05
0.000310678
5.75118e-05
0.000282012
5.16948e-05
0.000256041
4.6413e-05
0.000232515
4.16162e-05
0.000211212
3.72593e-05
0.000191922
3.33009e-05
0.000174463
2.97036e-05
0.000158667
2.64335e-05
0.00014438
2.346e-05
0.000131464
2.07554e-05
0.000119792
1.82947e-05
0.00010925
1.60553e-05
9.9735e-05
1.40167e-05
9.11523e-05
1.21606e-05
8.34164e-05
1.04704e-05
7.64493e-05
8.93117e-06
7.01801e-05
7.52942e-06
6.45437e-05
6.25309e-06
5.9481e-05
5.09129e-06
5.49375e-05
4.03421e-06
5.08632e-05
3.07294e-06
4.72124e-05
2.19947e-06
4.39424e-05
1.40643e-06
4.10151e-05
6.90713e-07
3.83786e-05
6.83188e-08
3.58575e-05
-4.17877e-07
3.30104e-05
-4.55799e-07
2.72624e-05
1.28467e-05
0.000182424
0.000925215
-0.000201636
0.00016499
0.000839282
0.000149193
0.000761357
0.000134872
0.000690719
0.000121879
0.000626648
0.000110088
0.000568509
9.93892e-05
0.000515759
8.96826e-05
0.000467917
8.08764e-05
0.000424537
7.28864e-05
0.000385211
6.56361e-05
0.000349564
5.90562e-05
0.000317258
5.30839e-05
0.000287984
4.76623e-05
0.000261463
4.27397e-05
0.000237437
3.82691e-05