/*--------------------------------*- C++ -*----------------------------------*\
  =========                 |
  \\      /  F ield         | OpenFOAM: The Open Source CFD Toolbox
   \\    /   O peration     | Website:  https://openfoam.org
    \\  /    A nd           | Version:  13
     \\/     M anipulation  |
\*---------------------------------------------------------------------------*/
FoamFile
{
    format      ascii;
    class       volScalarField;
    location    "276";
    object      ReThetat;
}
// * * * * * * * * * * * * * * * * * * * * * * * * * * * * * * * * * * * * * //

dimensions      [];

internalField   nonuniform List<scalar> 
26820
(
115.245
114.745
114.455
114.316
114.275
114.299
114.361
115.245
114.744
114.455
114.315
114.275
114.3
114.363
115.244
114.742
114.453
114.314
114.276
114.301
114.366
115.242
114.739
114.45
114.313
114.276
114.304
114.371
115.241
114.736
114.447
114.311
114.277
114.307
114.378
115.238
114.731
114.443
114.309
114.278
114.312
114.387
115.236
114.726
114.438
114.307
114.279
114.317
114.397
115.232
114.72
114.433
114.305
114.281
114.324
114.41
115.229
114.713
114.427
114.302
114.284
114.333
114.426
115.225
114.705
114.42
114.299
114.287
114.342
114.444
115.22
114.697
114.413
114.297
114.292
114.354
114.465
115.215
114.688
114.406
114.295
114.297
114.368
114.488
115.21
114.678
114.398
114.293
114.304
114.383
114.515
115.204
114.668
114.39
114.292
114.311
114.401
114.546
115.198
114.658
114.382
114.291
114.321
114.421
114.58
115.192
114.647
114.374
114.291
114.332
114.445
114.618
115.185
114.635
114.366
114.292
114.345
114.471
114.661
115.178
114.623
114.359
114.294
114.36
114.5
114.708
115.171
114.611
114.351
114.298
114.378
114.533
114.759
115.164
114.599
114.344
114.302
114.398
114.571
114.812
114.451
114.564
114.684
114.808
114.929
115.044
115.152
115.251
115.34
115.419
115.487
115.544
115.591
115.627
115.653
115.669
115.676
115.674
115.665
115.649
115.626
115.598
115.565
115.528
115.487
115.443
115.396
115.35
115.307
115.283
115.276
115.274
115.274
115.273
115.272
115.271
115.27
115.27
115.269
115.269
114.454
114.566
114.687
114.81
114.931
115.047
115.155
115.254
115.343
115.421
115.489
115.546
115.593
115.629
115.655
115.67
115.677
115.676
115.666
115.65
115.628
115.6
115.566
115.529
115.488
115.444
115.397
115.355
115.323
115.3
115.285
115.278
115.274
115.272
115.271
115.27
115.27
115.269
115.269
115.269
114.458
114.571
114.692
114.816
114.937
115.052
115.16
115.259
115.348
115.426
115.494
115.551
115.597
115.633
115.658
115.674
115.68
115.678
115.669
115.653
115.63
115.602
115.568
115.531
115.489
115.445
115.398
115.352
115.312
115.289
115.277
115.271
115.268
115.267
115.267
115.268
115.268
115.268
115.269
115.269
114.464
114.579
114.7
114.824
114.945
115.06
115.168
115.267
115.355
115.433
115.5
115.557
115.603
115.638
115.663
115.679
115.685
115.683
115.673
115.656
115.633
115.605
115.571
115.533
115.492
115.447
115.4
115.352
115.305
115.268
115.252
115.251
115.254
115.258
115.261
115.264
115.266
115.267
115.268
115.269
114.473
114.589
114.711
114.835
114.956
115.071
115.179
115.277
115.365
115.442
115.509
115.565
115.61
115.645
115.67
115.685
115.691
115.688
115.678
115.661
115.638
115.609
115.575
115.536
115.495
115.45
115.402
115.353
115.304
115.258
115.226
115.22
115.229
115.24
115.25
115.257
115.262
115.265
115.267
115.268
114.484
114.601
114.725
114.849
114.97
115.085
115.192
115.289
115.377
115.454
115.52
115.575
115.62
115.654
115.679
115.693
115.698
115.695
115.684
115.667
115.643
115.614
115.579
115.541
115.498
115.453
115.405
115.355
115.305
115.255
115.213
115.189
115.196
115.215
115.234
115.248
115.257
115.263
115.266
115.267
114.498
114.616
114.741
114.865
114.986
115.101
115.208
115.305
115.391
115.467
115.533
115.588
115.632
115.665
115.689
115.702
115.707
115.703
115.692
115.674
115.649
115.62
115.585
115.545
115.502
115.456
115.408
115.358
115.307
115.255
115.207
115.17
115.161
115.183
115.212
115.235
115.25
115.26
115.265
115.267
114.514
114.635
114.76
114.885
115.006
115.12
115.226
115.322
115.408
115.484
115.548
115.602
115.645
115.678
115.7
115.713
115.717
115.713
115.701
115.682
115.657
115.626
115.591
115.551
115.507
115.461
115.412
115.361
115.309
115.256
115.205
115.16
115.136
115.147
115.183
115.218
115.242
115.256
115.263
115.266
114.533
114.656
114.782
114.908
115.028
115.142
115.247
115.343
115.428
115.502
115.565
115.618
115.66
115.692
115.714
115.726
115.729
115.723
115.711
115.691
115.665
115.634
115.598
115.557
115.513
115.466
115.416
115.364
115.311
115.258
115.204
115.155
115.119
115.114
115.147
115.195
115.23
115.251
115.261
115.265
114.555
114.68
114.807
114.933
115.054
115.167
115.271
115.366
115.449
115.523
115.585
115.636
115.677
115.708
115.729
115.74
115.742
115.735
115.722
115.701
115.675
115.643
115.606
115.564
115.519
115.471
115.421
115.368
115.314
115.259
115.205
115.152
115.108
115.089
115.11
115.169
115.217
115.245
115.259
115.264
114.58
114.707
114.836
114.962
115.082
115.195
115.298
115.391
115.474
115.546
115.607
115.657
115.697
115.726
115.745
115.755
115.756
115.749
115.734
115.713
115.685
115.652
115.614
115.572
115.527
115.478
115.426
115.373
115.318
115.262
115.205
115.15
115.101
115.071
115.078
115.14
115.2
115.237
115.256
115.262
114.608
114.738
114.868
114.994
115.114
115.226
115.328
115.419
115.501
115.571
115.63
115.679
115.717
115.746
115.764
115.772
115.772
115.763
115.748
115.725
115.697
115.663
115.624
115.581
115.534
115.484
115.432
115.377
115.321
115.264
115.206
115.149
115.096
115.058
115.052
115.112
115.183
115.229
115.252
115.26
114.64
114.772
114.903
115.029
115.149
115.259
115.36
115.45
115.53
115.598
115.656
115.704
115.74
115.767
115.783
115.79
115.789
115.779
115.762
115.739
115.709
115.674
115.634
115.59
115.543
115.492
115.438
115.383
115.325
115.267
115.208
115.149
115.092
115.047
115.032
115.084
115.164
115.219
115.249
115.258
114.675
114.81
114.942
115.068
115.187
115.296
115.396
115.484
115.562
115.628
115.684
115.73
115.765
115.79
115.805
115.81
115.807
115.796
115.778
115.753
115.722
115.686
115.645
115.6
115.552
115.5
115.445
115.388
115.33
115.27
115.21
115.149
115.09
115.039
115.015
115.059
115.145
115.209
115.244
115.256
114.715
114.852
114.985
115.111
115.228
115.336
115.434
115.521
115.596
115.661
115.715
115.758
115.791
115.815
115.828
115.832
115.827
115.814
115.795
115.769
115.737
115.699
115.657
115.611
115.561
115.508
115.453
115.395
115.335
115.274
115.212
115.149
115.088
115.033
115.002
115.038
115.127
115.199
115.24
115.254
114.758
114.898
115.031
115.157
115.273
115.38
115.475
115.56
115.633
115.696
115.747
115.789
115.82
115.841
115.852
115.854
115.848
115.834
115.813
115.785
115.752
115.713
115.67
115.623
115.572
115.518
115.461
115.402
115.341
115.278
115.215
115.15
115.086
115.028
114.991
115.021
115.111
115.189
115.235
115.251
114.806
114.948
115.082
115.207
115.322
115.427
115.52
115.602
115.673
115.733
115.782
115.821
115.85
115.869
115.879
115.879
115.871
115.855
115.832
115.803
115.768
115.728
115.684
115.635
115.583
115.527
115.469
115.409
115.347
115.283
115.218
115.152
115.086
115.024
114.981
115.008
115.097
115.179
115.23
115.248
114.859
115.003
115.137
115.26
115.374
115.477
115.568
115.648
115.716
115.773
115.82
115.857
115.883
115.9
115.907
115.905
115.895
115.877
115.853
115.822
115.786
115.744
115.698
115.648
115.595
115.538
115.478
115.417
115.353
115.288
115.221
115.153
115.085
115.021
114.974
114.998
115.084
115.169
115.225
115.245
114.917
115.062
115.196
115.318
115.43
115.53
115.619
115.696
115.762
115.816
115.86
115.894
115.918
115.932
115.937
115.933
115.92
115.901
115.874
115.842
115.804
115.761
115.713
115.662
115.607
115.549
115.488
115.425
115.36
115.293
115.225
115.156
115.086
115.018
114.968
114.991
115.074
115.161
115.22
115.241
114.976
115.126
115.259
115.38
115.489
115.587
115.673
115.747
115.81
115.861
115.902
115.933
115.954
115.966
115.968
115.962
115.947
115.925
115.897
115.862
115.823
115.778
115.729
115.676
115.62
115.56
115.498
115.434
115.367
115.299
115.23
115.158
115.086
115.017
114.963
114.986
115.065
115.153
115.215
115.238
115.055
115.189
115.324
115.445
115.552
115.647
115.73
115.801
115.86
115.909
115.947
115.974
115.993
116.001
116.001
115.992
115.975
115.951
115.92
115.884
115.842
115.796
115.745
115.691
115.633
115.572
115.509
115.443
115.375
115.306
115.234
115.162
115.088
115.016
114.96
114.983
115.059
115.146
115.21
115.234
115.139
115.261
115.393
115.513
115.619
115.71
115.79
115.857
115.913
115.958
115.993
116.017
116.032
116.038
116.035
116.023
116.004
115.978
115.945
115.906
115.863
115.815
115.762
115.706
115.647
115.585
115.52
115.453
115.384
115.312
115.24
115.165
115.089
115.015
114.957
114.981
115.053
115.14
115.205
115.23
115.224
115.341
115.466
115.584
115.688
115.777
115.852
115.916
115.969
116.01
116.041
116.062
116.074
116.077
116.07
116.056
116.034
116.005
115.97
115.93
115.884
115.834
115.78
115.722
115.661
115.598
115.531
115.463
115.392
115.32
115.245
115.169
115.091
115.015
114.956
114.979
115.049
115.135
115.201
115.226
115.313
115.427
115.545
115.659
115.76
115.846
115.918
115.978
116.026
116.064
116.091
116.109
116.117
116.117
116.107
116.09
116.065
116.034
115.996
115.954
115.906
115.854
115.798
115.739
115.676
115.611
115.543
115.473
115.401
115.327
115.251
115.173
115.094
115.016
114.955
114.979
115.046
115.131
115.198
115.223
115.406
115.518
115.63
115.739
115.836
115.919
115.987
116.042
116.086
116.12
116.143
116.157
116.162
116.158
116.145
116.125
116.098
116.063
116.024
115.978
115.929
115.875
115.817
115.756
115.692
115.625
115.555
115.484
115.41
115.335
115.257
115.178
115.096
115.016
114.955
114.979
115.044
115.128
115.194
115.219
115.505
115.615
115.72
115.822
115.915
115.994
116.058
116.109
116.149
116.178
116.197
116.207
116.208
116.201
116.185
116.161
116.131
116.094
116.051
116.004
115.952
115.896
115.836
115.773
115.707
115.639
115.568
115.495
115.42
115.343
115.264
115.182
115.099
115.018
114.956
114.979
115.043
115.125
115.191
115.215
115.608
115.716
115.815
115.91
115.998
116.072
116.132
116.178
116.213
116.238
116.253
116.259
116.256
116.245
116.225
116.198
116.165
116.125
116.08
116.03
115.975
115.917
115.856
115.791
115.723
115.653
115.581
115.506
115.429
115.351
115.27
115.187
115.102
115.019
114.957
114.98
115.043
115.123
115.188
115.212
115.717
115.822
115.915
116.003
116.084
116.153
116.208
116.25
116.28
116.3
116.311
116.312
116.305
116.29
116.267
116.237
116.2
116.157
116.109
116.056
116
115.939
115.875
115.809
115.739
115.668
115.593
115.517
115.439
115.359
115.276
115.192
115.105
115.021
114.959
114.982
115.043
115.122
115.186
115.208
115.832
115.932
116.02
116.1
116.174
116.238
116.287
116.324
116.349
116.364
116.37
116.367
116.356
116.336
116.309
116.276
116.236
116.19
116.139
116.083
116.024
115.961
115.896
115.827
115.756
115.682
115.606
115.529
115.449
115.367
115.283
115.196
115.108
115.022
114.961
114.984
115.045
115.122
115.184
115.205
115.953
116.048
116.129
116.201
116.268
116.325
116.369
116.4
116.42
116.43
116.431
116.423
116.408
116.384
116.353
116.316
116.272
116.223
116.169
116.111
116.049
115.984
115.916
115.845
115.772
115.697
115.619
115.54
115.458
115.375
115.289
115.201
115.11
115.023
114.963
114.987
115.047
115.122
115.181
115.201
116.08
116.169
116.243
116.307
116.365
116.415
116.453
116.479
116.493
116.497
116.493
116.481
116.461
116.433
116.397
116.356
116.309
116.257
116.2
116.139
116.074
116.007
115.937
115.864
115.789
115.711
115.632
115.551
115.468
115.382
115.295
115.205
115.113
115.024
114.966
114.991
115.049
115.123
115.18
115.198
116.213
116.294
116.361
116.416
116.466
116.508
116.54
116.56
116.568
116.566
116.557
116.54
116.515
116.482
116.443
116.397
116.347
116.291
116.231
116.167
116.1
116.03
115.957
115.882
115.805
115.726
115.645
115.562
115.477
115.39
115.3
115.208
115.114
115.025
114.969
114.994
115.052
115.124
115.178
115.195
116.352
116.425
116.483
116.529
116.57
116.605
116.63
116.642
116.645
116.637
116.622
116.6
116.57
116.533
116.489
116.439
116.385
116.326
116.262
116.195
116.125
116.053
115.978
115.901
115.821
115.74
115.657
115.572
115.486
115.397
115.305
115.211
115.115
115.025
114.973
114.999
115.056
115.126
115.177
115.191
116.497
116.56
116.609
116.646
116.678
116.704
116.721
116.727
116.723
116.71
116.689
116.661
116.626
116.584
116.535
116.482
116.424
116.361
116.294
116.224
116.151
116.076
115.998
115.919
115.837
115.754
115.669
115.582
115.494
115.403
115.309
115.213
115.115
115.025
114.976
115.003
115.061
115.128
115.175
115.188
116.647
116.701
116.74
116.766
116.788
116.806
116.815
116.814
116.803
116.784
116.757
116.723
116.683
116.636
116.583
116.525
116.462
116.396
116.325
116.252
116.176
116.098
116.018
115.937
115.853
115.768
115.681
115.592
115.501
115.408
115.312
115.214
115.114
115.025
114.98
115.009
115.066
115.131
115.174
115.185
116.803
116.846
116.874
116.89
116.902
116.91
116.912
116.903
116.885
116.859
116.826
116.787
116.741
116.689
116.63
116.568
116.501
116.431
116.357
116.28
116.202
116.121
116.038
115.954
115.868
115.781
115.692
115.601
115.508
115.413
115.314
115.213
115.111
115.024
114.984
115.015
115.071
115.133
115.173
115.182
116.964
116.995
117.012
117.017
117.018
117.017
117.01
116.994
116.969
116.936
116.896
116.851
116.799
116.742
116.678
116.611
116.541
116.466
116.388
116.309
116.227
116.143
116.058
115.971
115.883
115.793
115.702
115.609
115.514
115.416
115.315
115.211
115.108
115.022
114.989
115.021
115.077
115.136
115.172
115.179
117.13
117.149
117.153
117.147
117.137
117.126
117.11
117.086
117.053
117.013
116.967
116.916
116.858
116.795
116.726
116.654
116.58
116.501
116.42
116.336
116.252
116.165
116.077
115.988
115.897
115.805
115.711
115.616
115.518
115.418
115.314
115.207
115.103
115.021
114.995
115.028
115.083
115.139
115.17
115.176
117.301
117.307
117.298
117.28
117.259
117.238
117.213
117.18
117.139
117.092
117.039
116.981
116.918
116.849
116.774
116.697
116.618
116.536
116.451
116.364
116.276
116.186
116.095
116.003
115.91
115.815
115.719
115.621
115.521
115.418
115.311
115.202
115.097
115.019
115.001
115.035
115.089
115.142
115.169
115.174
117.478
117.469
117.446
117.415
117.383
117.352
117.317
117.275
117.226
117.172
117.112
117.047
116.978
116.903
116.822
116.74
116.657
116.57
116.481
116.391
116.299
116.207
116.113
116.018
115.922
115.825
115.726
115.626
115.523
115.417
115.307
115.194
115.089
115.019
115.008
115.043
115.096
115.145
115.167
115.171
115.156
114.592
114.342
114.308
114.413
114.599
114.838
115.156
114.592
114.344
114.312
114.419
114.61
114.852
115.156
114.592
114.345
114.316
114.425
114.619
114.864
115.156
114.593
114.346
114.318
114.43
114.626
114.875
115.156
114.593
114.347
114.321
114.434
114.632
114.883
115.156
114.593
114.348
114.322
114.437
114.637
114.889
115.156
114.593
114.349
114.324
114.44
114.64
114.893
115.156
114.593
114.349
114.324
114.441
114.641
114.895
115.156
114.594
114.349
114.325
114.441
114.641
114.895
115.156
114.593
114.349
114.324
114.441
114.64
114.893
115.156
114.593
114.349
114.324
114.44
114.639
114.891
115.156
114.593
114.349
114.323
114.438
114.637
114.888
115.156
114.593
114.348
114.323
114.437
114.635
114.885
115.156
114.593
114.348
114.322
114.436
114.633
114.882
115.156
114.593
114.348
114.321
114.435
114.631
114.879
115.156
114.593
114.348
114.321
114.434
114.629
114.877
115.156
114.593
114.347
114.32
114.433
114.628
114.875
115.156
114.593
114.347
114.32
114.432
114.627
114.873
115.156
114.593
114.347
114.319
114.431
114.626
114.872
115.156
114.593
114.347
114.319
114.431
114.625
114.871
115.156
114.593
114.347
114.319
114.431
114.625
114.87
115.156
114.593
114.347
114.319
114.43
114.624
114.87
115.156
114.593
114.347
114.319
114.43
114.624
114.869
115.156
114.593
114.347
114.319
114.43
114.624
114.869
115.156
114.593
114.347
114.319
114.43
114.624
114.869
115.156
114.593
114.347
114.319
114.43
114.624
114.869
115.156
114.593
114.347
114.319
114.43
114.623
114.869
115.156
114.593
114.347
114.319
114.43
114.623
114.868
115.156
114.593
114.347
114.319
114.43
114.623
114.868
115.156
114.593
114.347
114.319
114.43
114.623
114.868
115.156
114.593
114.347
114.319
114.43
114.623
114.868
115.156
114.593
114.347
114.319
114.43
114.623
114.868
115.156
114.593
114.347
114.319
114.43
114.623
114.868
115.156
114.593
114.347
114.319
114.43
114.623
114.868
115.156
114.593
114.347
114.319
114.43
114.623
114.868
115.156
114.593
114.347
114.319
114.43
114.623
114.868
115.156
114.593
114.347
114.319
114.43
114.623
114.868
115.156
114.593
114.347
114.319
114.43
114.623
114.868
115.156
114.593
114.347
114.319
114.43
114.623
114.868
115.156
114.593
114.347
114.319
114.43
114.623
114.868
114.994
115.065
115.142
115.227
115.318
115.416
115.521
115.633
115.751
115.876
116.008
116.146
116.291
116.442
116.599
116.762
116.93
117.104
117.283
117.467
115.013
115.087
115.168
115.256
115.35
115.45
115.556
115.669
115.788
115.913
116.045
116.183
116.327
116.477
116.632
116.794
116.961
117.133
117.311
117.493
115.027
115.101
115.182
115.269
115.362
115.462
115.568
115.68
115.798
115.923
116.054
116.191
116.334
116.484
116.639
116.8
116.966
117.138
117.314
117.496
115.039
115.112
115.193
115.28
115.373
115.473
115.578
115.69
115.808
115.932
116.063
116.199
116.342
116.491
116.645
116.805
116.97
117.141
117.316
117.497
115.048
115.121
115.202
115.288
115.381
115.48
115.585
115.697
115.814
115.938
116.068
116.204
116.346
116.494
116.647
116.806
116.971
117.14
117.314
117.494
115.054
115.127
115.207
115.294
115.386
115.485
115.589
115.7
115.817
115.94
116.07
116.205
116.346
116.493
116.646
116.804
116.968
117.136
117.309
117.488
115.058
115.131
115.211
115.297
115.389
115.487
115.591
115.701
115.818
115.94
116.069
116.203
116.344
116.49
116.642
116.799
116.962
117.129
117.302
117.479
115.059
115.132
115.211
115.297
115.389
115.486
115.59
115.7
115.816
115.938
116.066
116.199
116.339
116.485
116.636
116.792
116.954
117.121
117.292
117.468
115.059
115.131
115.21
115.296
115.387
115.484
115.587
115.697
115.812
115.933
116.061
116.194
116.333
116.478
116.628
116.784
116.945
117.11
117.28
117.455
115.057
115.129
115.208
115.293
115.384
115.481
115.583
115.692
115.807
115.928
116.055
116.187
116.326
116.47
116.62
116.774
116.934
117.099
117.268
117.442
115.054
115.126
115.204
115.289
115.38
115.476
115.579
115.687
115.802
115.922
116.048
116.18
116.318
116.462
116.611
116.765
116.924
117.088
117.256
117.429
115.05
115.122
115.201
115.285
115.375
115.472
115.574
115.682
115.796
115.916
116.042
116.173
116.311
116.453
116.602
116.755
116.914
117.077
117.244
117.416
115.047
115.118
115.197
115.281
115.371
115.467
115.569
115.677
115.79
115.91
116.035
116.167
116.303
116.446
116.593
116.746
116.904
117.066
117.233
117.404
115.043
115.115
115.193
115.277
115.367
115.463
115.565
115.672
115.785
115.905
116.03
116.161
116.297
116.439
116.586
116.738
116.895
117.057
117.223
117.394
115.04
115.112
115.19
115.274
115.364
115.459
115.561
115.668
115.781
115.9
116.025
116.155
116.291
116.433
116.579
116.731
116.888
117.049
117.215
117.384
115.037
115.109
115.187
115.271
115.361
115.456
115.558
115.665
115.778
115.897
116.021
116.151
116.287
116.428
116.574
116.725
116.882
117.042
117.207
117.377
115.035
115.107
115.185
115.269
115.359
115.454
115.555
115.662
115.775
115.894
116.018
116.148
116.283
116.424
116.57
116.721
116.876
117.037
117.201
117.37
115.033
115.105
115.183
115.267
115.357
115.452
115.554
115.661
115.773
115.892
116.016
116.145
116.28
116.421
116.566
116.717
116.872
117.032
117.196
117.365
115.032
115.104
115.182
115.266
115.356
115.451
115.553
115.659
115.772
115.89
116.014
116.144
116.279
116.419
116.564
116.714
116.869
117.029
117.192
117.36
115.031
115.103
115.181
115.266
115.355
115.451
115.552
115.659
115.771
115.89
116.013
116.143
116.277
116.417
116.562
116.712
116.867
117.026
117.19
117.357
115.03
115.102
115.181
115.265
115.355
115.451
115.552
115.659
115.771
115.889
116.013
116.142
116.277
116.417
116.562
116.711
116.866
117.024
117.187
117.355
115.03
115.102
115.181
115.265
115.355
115.451
115.552
115.659
115.772
115.89
116.013
116.143
116.277
116.417
116.561
116.711
116.865
117.023
117.186
117.353
115.029
115.102
115.181
115.266
115.356
115.452
115.553
115.66
115.773
115.891
116.014
116.143
116.278
116.417
116.561
116.711
116.864
117.023
117.185
117.351
115.029
115.102
115.181
115.266
115.357
115.453
115.554
115.661
115.774
115.892
116.015
116.144
116.278
116.418
116.562
116.711
116.864
117.022
117.184
117.35
115.029
115.102
115.182
115.267
115.358
115.454
115.556
115.663
115.775
115.893
116.017
116.146
116.28
116.419
116.563
116.712
116.865
117.022
117.184
117.35
115.029
115.103
115.183
115.268
115.359
115.455
115.557
115.665
115.777
115.895
116.019
116.148
116.281
116.42
116.564
116.713
116.865
117.023
117.184
117.349
115.029
115.103
115.184
115.269
115.361
115.457
115.559
115.667
115.779
115.898
116.021
116.15
116.283
116.422
116.566
116.714
116.866
117.023
117.184
117.349
115.029
115.104
115.185
115.271
115.362
115.459
115.561
115.669
115.782
115.9
116.024
116.152
116.286
116.424
116.568
116.715
116.868
117.024
117.184
117.349
115.03
115.105
115.186
115.272
115.364
115.461
115.564
115.672
115.785
115.903
116.027
116.155
116.288
116.427
116.57
116.717
116.869
117.025
117.185
117.349
115.03
115.105
115.187
115.274
115.367
115.464
115.567
115.675
115.788
115.906
116.03
116.158
116.291
116.43
116.572
116.719
116.871
117.026
117.186
117.349
115.03
115.106
115.189
115.276
115.369
115.467
115.57
115.678
115.792
115.91
116.033
116.162
116.295
116.433
116.575
116.722
116.873
117.028
117.186
117.349
115.031
115.107
115.19
115.278
115.372
115.47
115.574
115.682
115.796
115.914
116.038
116.166
116.299
116.436
116.578
116.724
116.875
117.029
117.187
117.349
115.031
115.108
115.192
115.281
115.375
115.474
115.578
115.686
115.8
115.919
116.042
116.17
116.303
116.44
116.582
116.727
116.877
117.031
117.188
117.35
115.031
115.11
115.194
115.284
115.378
115.478
115.582
115.691
115.805
115.924
116.047
116.175
116.307
116.444
116.585
116.731
116.88
117.033
117.19
117.35
115.032
115.111
115.197
115.287
115.382
115.482
115.587
115.696
115.81
115.929
116.053
116.18
116.313
116.449
116.59
116.734
116.883
117.035
117.191
117.35
115.032
115.113
115.199
115.29
115.386
115.487
115.592
115.702
115.817
115.935
116.059
116.186
116.318
116.454
116.594
116.738
116.886
117.038
117.192
117.351
115.033
115.115
115.202
115.294
115.391
115.492
115.598
115.709
115.823
115.942
116.066
116.193
116.325
116.46
116.6
116.743
116.89
117.04
117.194
117.351
115.034
115.117
115.205
115.298
115.396
115.498
115.605
115.716
115.831
115.95
116.073
116.201
116.332
116.467
116.606
116.748
116.894
117.043
117.196
117.352
115.034
115.119
115.209
115.303
115.402
115.505
115.612
115.724
115.839
115.958
116.082
116.209
116.34
116.474
116.612
116.754
116.898
117.047
117.198
117.353
115.035
115.121
115.212
115.308
115.408
115.512
115.62
115.732
115.848
115.968
116.091
116.218
116.348
116.482
116.619
116.76
116.903
117.05
117.2
117.353
115.168
115.166
115.163
115.161
115.158
115.155
115.153
115.15
115.147
115.144
115.141
115.138
115.135
115.132
115.13
115.127
115.124
115.121
115.119
115.116
115.114
115.112
115.11
115.108
115.106
115.104
115.103
115.102
115.101
115.1
115.1
115.1
115.1
115.1
115.101
115.103
115.104
115.106
115.109
115.112
115.116
115.12
115.125
115.131
115.137
115.145
115.153
115.161
115.171
115.182
115.193
115.206
115.22
115.235
115.251
115.269
115.288
115.308
115.33
115.353
115.378
115.405
115.434
115.465
115.498
115.533
115.571
115.611
115.655
115.701
115.751
115.805
115.863
115.925
115.991
116.063
116.141
116.224
116.314
116.412
115.166
115.164
115.162
115.16
115.157
115.155
115.152
115.15
115.147
115.144
115.141
115.138
115.135
115.133
115.13
115.127
115.124
115.122
115.119
115.116
115.114
115.112
115.11
115.108
115.106
115.104
115.103
115.102
115.101
115.1
115.1
115.1
115.1
115.1
115.101
115.103
115.104
115.106
115.109
115.112
115.116
115.121
115.126
115.131
115.138
115.145
115.153
115.162
115.171
115.182
115.194
115.206
115.22
115.235
115.252
115.269
115.288
115.308
115.33
115.353
115.379
115.405
115.434
115.465
115.498
115.533
115.571
115.612
115.655
115.702
115.752
115.805
115.863
115.925
115.992
116.064
116.141
116.225
116.315
116.412
115.147
115.148
115.149
115.149
115.149
115.148
115.147
115.145
115.143
115.141
115.139
115.136
115.134
115.131
115.129
115.126
115.123
115.121
115.118
115.116
115.114
115.111
115.109
115.107
115.106
115.104
115.103
115.102
115.101
115.1
115.1
115.099
115.1
115.1
115.101
115.103
115.104
115.107
115.11
115.113
115.117
115.121
115.126
115.132
115.139
115.146
115.154
115.163
115.173
115.184
115.195
115.208
115.222
115.237
115.253
115.271
115.29
115.31
115.332
115.355
115.38
115.407
115.436
115.467
115.5
115.535
115.573
115.614
115.657
115.704
115.754
115.807
115.865
115.927
115.994
116.066
116.143
116.227
116.317
116.414
115.102
115.107
115.112
115.116
115.119
115.122
115.124
115.126
115.127
115.127
115.127
115.126
115.125
115.124
115.123
115.121
115.119
115.117
115.115
115.114
115.112
115.11
115.108
115.106
115.105
115.103
115.102
115.101
115.1
115.1
115.099
115.099
115.1
115.101
115.102
115.103
115.105
115.108
115.111
115.114
115.118
115.123
115.129
115.135
115.141
115.149
115.157
115.167
115.177
115.188
115.2
115.213
115.227
115.242
115.258
115.276
115.295
115.315
115.337
115.36
115.386
115.413
115.441
115.472
115.505
115.541
115.578
115.619
115.662
115.709
115.759
115.813
115.87
115.932
115.999
116.071
116.148
116.232
116.322
116.42
115.05
115.056
115.061
115.067
115.072
115.077
115.082
115.086
115.09
115.094
115.097
115.1
115.102
115.104
115.105
115.106
115.106
115.106
115.106
115.105
115.105
115.104
115.103
115.102
115.101
115.1
115.1
115.099
115.099
115.099
115.099
115.1
115.1
115.101
115.103
115.105
115.108
115.111
115.114
115.118
115.123
115.128
115.134
115.14
115.148
115.156
115.165
115.174
115.185
115.196
115.209
115.222
115.236
115.252
115.268
115.286
115.305
115.326
115.348
115.371
115.397
115.423
115.452
115.483
115.516
115.552
115.589
115.63
115.673
115.72
115.77
115.824
115.881
115.943
116.01
116.082
116.159
116.243
116.333
116.431
115.014
115.019
115.024
115.029
115.034
115.039
115.044
115.048
115.052
115.057
115.061
115.065
115.069
115.073
115.077
115.08
115.083
115.085
115.087
115.089
115.091
115.092
115.093
115.094
115.094
115.095
115.096
115.096
115.097
115.098
115.099
115.101
115.102
115.104
115.107
115.11
115.113
115.117
115.121
115.126
115.132
115.138
115.144
115.152
115.16
115.169
115.179
115.189
115.2
115.212
115.225
115.239
115.254
115.27
115.287
115.305
115.324
115.345
115.367
115.391
115.416
115.443
115.472
115.503
115.536
115.572
115.609
115.65
115.693
115.74
115.79
115.844
115.901
115.963
116.03
116.102
116.18
116.263
116.354
116.451
115.018
115.019
115.02
115.021
115.024
115.027
115.03
115.034
115.038
115.041
115.044
115.048
115.052
115.055
115.059
115.062
115.066
115.069
115.072
115.075
115.078
115.081
115.084
115.086
115.089
115.091
115.093
115.096
115.098
115.101
115.103
115.106
115.109
115.113
115.116
115.121
115.125
115.131
115.136
115.142
115.149
115.157
115.165
115.173
115.183
115.193
115.203
115.215
115.227
115.24
115.253
115.268
115.284
115.3
115.318
115.336
115.356
115.377
115.4
115.423
115.449
115.476
115.505
115.536
115.569
115.605
115.643
115.683
115.727
115.773
115.824
115.877
115.935
115.997
116.064
116.136
116.214
116.298
116.388
116.486
115.082
115.076
115.072
115.068
115.064
115.062
115.06
115.059
115.057
115.058
115.059
115.061
115.063
115.066
115.068
115.071
115.074
115.077
115.08
115.083
115.086
115.09
115.093
115.096
115.099
115.103
115.106
115.11
115.113
115.117
115.121
115.126
115.13
115.135
115.141
115.146
115.153
115.159
115.167
115.174
115.183
115.192
115.201
115.211
115.222
115.233
115.245
115.258
115.271
115.285
115.299
115.315
115.331
115.348
115.366
115.386
115.406
115.427
115.45
115.475
115.5
115.528
115.557
115.588
115.621
115.657
115.695
115.736
115.779
115.826
115.876
115.93
115.988
116.051
116.118
116.19
116.268
116.352
116.443
116.542
115.186
115.18
115.174
115.167
115.16
115.152
115.145
115.139
115.133
115.128
115.123
115.119
115.116
115.113
115.112
115.112
115.114
115.116
115.118
115.121
115.124
115.127
115.13
115.134
115.138
115.142
115.146
115.15
115.155
115.16
115.165
115.17
115.176
115.183
115.19
115.197
115.204
115.213
115.221
115.231
115.24
115.251
115.262
115.273
115.285
115.298
115.311
115.325
115.339
115.354
115.37
115.386
115.403
115.421
115.44
115.46
115.48
115.502
115.526
115.55
115.576
115.604
115.634
115.665
115.699
115.735
115.773
115.814
115.858
115.905
115.956
116.01
116.069
116.132
116.199
116.272
116.351
116.436
116.527
116.627
115.301
115.297
115.292
115.287
115.282
115.277
115.271
115.264
115.257
115.249
115.24
115.231
115.223
115.216
115.21
115.204
115.199
115.196
115.194
115.193
115.193
115.195
115.198
115.201
115.205
115.209
115.214
115.219
115.224
115.23
115.236
115.243
115.25
115.258
115.266
115.275
115.284
115.294
115.304
115.315
115.326
115.338
115.35
115.363
115.376
115.39
115.405
115.419
115.435
115.451
115.468
115.485
115.503
115.522
115.542
115.563
115.584
115.607
115.631
115.656
115.683
115.711
115.742
115.774
115.808
115.845
115.884
115.926
115.971
116.019
116.07
116.125
116.185
116.249
116.317
116.391
116.471
116.557
116.65
116.751
115.414
115.412
115.409
115.407
115.405
115.402
115.399
115.396
115.392
115.388
115.383
115.377
115.371
115.365
115.357
115.348
115.338
115.33
115.323
115.317
115.312
115.31
115.309
115.309
115.31
115.312
115.315
115.319
115.324
115.33
115.337
115.344
115.352
115.36
115.369
115.379
115.389
115.4
115.412
115.424
115.437
115.45
115.464
115.478
115.493
115.508
115.524
115.541
115.558
115.575
115.594
115.612
115.632
115.652
115.673
115.695
115.718
115.743
115.768
115.795
115.823
115.853
115.885
115.919
115.954
115.992
116.033
116.076
116.123
116.172
116.225
116.282
116.344
116.409
116.48
116.556
116.638
116.726
116.822
116.925
115.522
115.522
115.522
115.522
115.522
115.521
115.521
115.521
115.52
115.52
115.519
115.517
115.516
115.514
115.511
115.507
115.503
115.498
115.492
115.486
115.48
115.474
115.47
115.466