/*--------------------------------*- C++ -*----------------------------------*\
  =========                 |
  \\      /  F ield         | OpenFOAM: The Open Source CFD Toolbox
   \\    /   O peration     | Website:  https://openfoam.org
    \\  /    A nd           | Version:  13
     \\/     M anipulation  |
\*---------------------------------------------------------------------------*/
FoamFile
{
    format      ascii;
    class       volVectorField;
    location    "276";
    object      U;
}
// * * * * * * * * * * * * * * * * * * * * * * * * * * * * * * * * * * * * * //

dimensions      [0 1 -1 0 0 0 0];

internalField   nonuniform List<vector> 
26820
(
(5.39977 0.000106203 3.56472e-21)
(5.39793 0.00031133 -2.41654e-22)
(5.39442 0.000528992 5.14269e-22)
(5.38958 0.000767037 -8.31551e-22)
(5.38371 0.00103644 5.8176e-22)
(5.37701 0.00132958 0)
(5.36954 0.00170624 6.89023e-22)
(5.39977 0.000306686 -4.18211e-21)
(5.39794 0.000919344 4.39652e-21)
(5.39444 0.00156934 0)
(5.38961 0.00227979 0)
(5.38377 0.00308609 0)
(5.3771 0.00396204 0)
(5.36966 0.00509258 -3.1006e-21)
(5.39977 0.000499001 5.51887e-22)
(5.39795 0.00152065 -5.20628e-21)
(5.39446 0.00260151 2.39724e-21)
(5.38965 0.00378172 -7.37759e-23)
(5.38384 0.00512427 -2.74526e-21)
(5.37722 0.00658022 5.77397e-21)
(5.36985 0.00846769 -6.1138e-21)
(5.39977 0.000696898 1.8389e-20)
(5.39795 0.00213148 -1.02612e-20)
(5.39448 0.00364399 7.2413e-21)
(5.3897 0.00529414 -2.51238e-21)
(5.38393 0.00717317 5.38087e-21)
(5.37739 0.00920763 2.94519e-21)
(5.37011 0.0118531 -1.20261e-20)
(5.39977 0.000896576 -1.81419e-20)
(5.39796 0.00274281 1.01402e-20)
(5.39451 0.00468563 -1.98444e-23)
(5.38977 0.00680404 1.00592e-20)
(5.38406 0.00921758 0)
(5.37762 0.0118259 0)
(5.37046 0.0152264 -2.98445e-21)
(5.39976 0.00109716 0)
(5.39797 0.00335452 0)
(5.39454 0.00572699 -1.40437e-20)
(5.38986 0.0083122 -1.49158e-20)
(5.38423 0.0112584 -1.59359e-20)
(5.37791 0.0144351 1.13313e-20)
(5.3709 0.0185881 -5.4862e-21)
(5.39976 0.0012987 -1.44636e-20)
(5.39798 0.00396721 -1.97221e-20)
(5.39459 0.00676833 2.78993e-20)
(5.38996 0.00981838 0)
(5.38442 0.0132949 2.09836e-20)
(5.37827 0.017033 5.34935e-21)
(5.37143 0.0219346 2.33798e-20)
(5.39976 0.0015013 4.90037e-23)
(5.39799 0.00458103 2.17562e-20)
(5.39464 0.00780936 -1.83478e-20)
(5.39009 0.0113219 -4.84258e-21)
(5.38466 0.0153256 -1.04401e-20)
(5.37868 0.0196171 -1.10876e-20)
(5.37205 0.0252626 -3.69873e-23)
(5.39976 0.00170499 1.61556e-20)
(5.39801 0.00519593 4.33031e-21)
(5.3947 0.00884967 -4.52294e-21)
(5.39024 0.012822 0)
(5.38493 0.0173494 0)
(5.37916 0.0221848 1.09703e-20)
(5.37276 0.0285689 -1.16659e-20)
(5.39976 0.00190979 0)
(5.39803 0.00581178 1.69428e-20)
(5.39477 0.00988875 -1.8049e-20)
(5.3904 0.014318 0)
(5.38524 0.0193647 -1.02661e-20)
(5.3797 0.0247338 -1.09881e-20)
(5.37357 0.0318501 -5.99973e-21)
(5.39976 0.00211564 3.14618e-20)
(5.39806 0.00642834 -1.68545e-20)
(5.39486 0.010926 3.59004e-20)
(5.39059 0.0158091 0)
(5.38558 0.0213699 2.04929e-20)
(5.38031 0.0272616 0)
(5.37448 0.0351027 0)
(5.39976 0.00232249 -2.09806e-21)
(5.39809 0.00704525 6.28821e-21)
(5.39495 0.0119607 -3.10647e-20)
(5.39081 0.0172944 -9.44849e-21)
(5.38597 0.0233632 -1.02428e-20)
(5.38098 0.0297661 0)
(5.37548 0.0383229 -2.35089e-20)
(5.39976 0.00253023 -3.10448e-20)
(5.39812 0.00766205 4.18107e-21)
(5.39506 0.0129919 -4.30859e-21)
(5.39105 0.0187731 9.64436e-21)
(5.38641 0.0253423 -1.00707e-20)
(5.38173 0.0322455 -1.11946e-20)
(5.37658 0.0415064 3.43205e-20)
(5.39976 0.00273873 3.86084e-21)
(5.39816 0.00827818 -4.10881e-21)
(5.39517 0.0140188 1.77323e-20)
(5.39131 0.0202441 1.89328e-20)
(5.38688 0.0273049 -1.0138e-20)
(5.38254 0.0346986 -1.0913e-20)
(5.37778 0.0446476 -5.86611e-21)
(5.39977 0.00294779 0)
(5.3982 0.00889305 1.63877e-20)
(5.39531 0.0150408 0)
(5.3916 0.0217069 -1.90434e-20)
(5.3874 0.0292486 2.03586e-20)
(5.38342 0.0371248 -2.19781e-20)
(5.37908 0.0477392 4.05222e-20)
(5.39977 0.00315709 0)
(5.39825 0.00950551 -1.64567e-20)
(5.39545 0.0160571 -8.92227e-21)
(5.39191 0.0231616 9.26722e-21)
(5.38797 0.0311731 -2.0775e-20)
(5.38437 0.0395277 1.04359e-20)
(5.38048 0.0507738 2.2975e-20)
(5.39978 0.00336643 -1.52132e-20)
(5.3983 0.0101128 0)
(5.39562 0.0170624 0)
(5.39225 0.0246018 -9.56313e-21)
(5.38859 0.033072 0)
(5.38539 0.0419095 1.10549e-20)
(5.38197 0.0537401 -2.30849e-20)
(5.39979 0.00357721 1.9169e-20)
(5.39836 0.0107147 -4.10445e-21)
(5.39579 0.0180491 0)
(5.39262 0.0260066 0)
(5.38926 0.0349119 2.0779e-20)
(5.38646 0.0442377 -2.73046e-20)
(5.38355 0.056584 2.35983e-20)
(5.3998 0.003794 0)
(5.39843 0.0113361 8.34531e-21)
(5.39598 0.0190658 -8.87472e-21)
(5.39301 0.0274306 4.93157e-21)
(5.38997 0.0367241 -3.10815e-20)
(5.38758 0.046492 3.00767e-20)
(5.38524 0.0592156 2.04927e-20)
(5.39982 0.00401452 0)
(5.39849 0.0120581 9.22084e-21)
(5.39617 0.020384 -9.76787e-21)
(5.39339 0.0294187 5.30079e-21)
(5.39069 0.0393417 0)
(5.3887 0.0497389 -2.67811e-20)
(5.38706 0.0628201 2.78426e-20)
(5.36087 0.00198143 3.11819e-23)
(5.3506 0.00225062 -1.56595e-21)
(5.33901 0.00252879 8.57276e-22)
(5.32601 0.0028307 7.89048e-21)
(5.31152 0.00316227 -5.7331e-22)
(5.29539 0.00352752 -5.04159e-21)
(5.27747 0.00393135 6.85962e-22)
(5.25756 0.00437954 0)
(5.23546 0.00487839 0)
(5.21094 0.00543491 0)
(5.18373 0.00605702 0)
(5.15353 0.00675365 0)
(5.12003 0.00753513 -3.77463e-22)
(5.08277 0.0084141 6.07345e-22)
(5.04145 0.00939158 3.46178e-21)
(4.99565 0.0105123 0)
(4.94466 0.0117735 3.78052e-22)
(4.88801 0.013191 -6.75992e-22)
(4.82508 0.0147907 4.83339e-21)
(4.75513 0.0166014 0)
(4.67735 0.0186533 3.54843e-21)
(4.59084 0.0209804 2.88479e-22)
(4.49463 0.0236212 5.11762e-21)
(4.38765 0.02662 -3.35423e-21)
(4.26871 0.0300261 0)
(4.13653 0.0338953 0)
(3.98971 0.0382893 -3.06551e-21)
(3.82677 0.0432763 0)
(3.64612 0.0489304 4.49724e-21)
(3.44611 0.0553311 -4.71059e-21)
(3.22503 0.0625619 -7.86885e-22)
(2.98116 0.0707077 3.88463e-21)
(2.7128 0.0798501 5.99066e-22)
(2.41839 0.0900589 4.02075e-23)
(2.09642 0.101372 -1.62352e-21)
(1.74639 0.113765 9.31049e-22)
(1.3646 0.126958 0)
(0.961677 0.139817 0)
(0.532926 0.146953 0)
(0.117432 0.112396 0)
(5.36104 0.00591201 2.88527e-21)
(5.35081 0.00671884 1.33451e-20)
(5.33926 0.00755076 0)
(5.3263 0.00845104 -8.64173e-21)
(5.31185 0.00943924 0)
(5.29578 0.0105279 1.68308e-20)
(5.27791 0.0117316 0)
(5.25807 0.0130673 1.89596e-21)
(5.23604 0.0145542 -2.02945e-21)
(5.2116 0.016213 -1.24136e-21)
(5.18449 0.0180675 2.74438e-21)
(5.1544 0.0201446 -1.51189e-21)
(5.12103 0.0224737 7.1322e-21)
(5.0839 0.0250944 0)
(5.04274 0.0280212 -4.67717e-21)
(4.9971 0.0313316 -1.14532e-20)
(4.94631 0.0350692 -9.33299e-22)
(4.88988 0.0392849 1.06768e-21)
(4.82721 0.0440487 -5.50012e-21)
(4.75755 0.0494419 0)
(4.68009 0.0555537 -4.19054e-21)
(4.59396 0.0624852 0)
(4.49819 0.0703514 7.92596e-21)
(4.39171 0.0792831 2.00967e-21)
(4.27336 0.0894274 0)
(4.14187 0.100949 -1.29465e-20)
(3.99585 0.114031 1.21194e-20)
(3.83384 0.128875 0)
(3.65428 0.145701 -6.44239e-21)
(3.45554 0.164742 6.0488e-21)
(3.23595 0.186247 3.70908e-21)
(2.99379 0.210464 -6.5956e-21)
(2.72742 0.237639 2.74383e-21)
(2.43529 0.267976 -3.07978e-21)
(2.11588 0.301614 7.50096e-21)
(1.76856 0.338491 0)
(1.38927 0.378152 0)
(0.987473 0.417469 0)
(0.556936 0.439416 0)
(0.11773 0.332179 9.80451e-21)
(5.36131 0.00982185 2.57613e-21)
(5.35114 0.0111646 -9.4584e-21)
(5.33965 0.0125482 3.20702e-20)
(5.32677 0.014042 -8.13166e-21)
(5.31239 0.0156809 2.29742e-20)
(5.2964 0.0174864 -7.84613e-21)
(5.27862 0.0194822 2.11708e-20)
(5.25888 0.0216968 -1.78865e-21)
(5.23697 0.0241616 1.76953e-20)
(5.21266 0.0269114 -2.3491e-21)
(5.18569 0.029985 2.50899e-21)
(5.15576 0.0334277 1.5431e-21)
(5.12258 0.0372866 6.87515e-21)
(5.08567 0.0416298 -1.73801e-20)
(5.04475 0.0464937 2.32623e-21)
(4.99939 0.0519736 -2.58334e-21)
(4.94892 0.0581648 -1.7727e-21)
(4.89285 0.065155 2.02426e-21)
(4.83059 0.0730552 -1.03631e-20)
(4.76141 0.0819972 0)
(4.68449 0.0921288 0)
(4.599 0.103617 -9.64915e-21)
(4.50396 0.116653 -1.4989e-20)
(4.39834 0.131452 3.48405e-21)
(4.28098 0.148255 0)
(4.15063 0.167335 1.07505e-20)
(4.00595 0.188992 -9.90759e-21)
(3.8455 0.213557 5.832e-21)
(3.66775 0.241391 9.59861e-21)
(3.47111 0.272879 -2.74748e-21)
(3.25394 0.308426 0)
(3.0146 0.348441 0)
(2.75146 0.393328 -9.65119e-21)
(2.46301 0.443433 0)
(2.14774 0.499026 -2.04146e-20)
(1.80494 0.560076 1.20895e-20)
(1.43034 0.626352 -4.63551e-21)
(1.03234 0.693112 -1.40312e-20)
(0.603812 0.730949 3.67041e-21)
(0.146494 0.546838 -8.90749e-21)
(5.36168 0.0137321 1.03723e-20)
(5.3516 0.0156058 -5.75585e-21)
(5.34021 0.0175395 -3.0259e-20)
(5.32742 0.0196256 7.65941e-21)
(5.31315 0.0219134 1.30857e-20)
(5.29728 0.0244338 0)
(5.27963 0.0272197 -2.58119e-20)
(5.26002 0.0303105 3.17372e-21)
(5.23827 0.0337501 -1.50031e-20)
(5.21413 0.0375867 0)
(5.18736 0.0418745 2.55663e-21)
(5.15766 0.0466765 -5.66353e-21)
(5.12474 0.0520581 -9.83579e-21)
(5.08813 0.0581148 8.53722e-23)
(5.04755 0.0649034 -1.91769e-20)
(5.00258 0.072547 1.29434e-20)
(4.95255 0.0811823 -1.6858e-21)
(4.89699 0.0909325 1.92186e-21)
(4.83531 0.10195 1.24564e-20)
(4.7668 0.114417 9.15578e-21)
(4.69066 0.128539 0)
(4.60607 0.144549 1.15462e-20)
(4.51207 0.16271 -5.60092e-21)
(4.40766 0.183321 -1.02529e-20)
(4.2917 0.206718 0)
(4.16298 0.233276 2.61909e-21)
(4.02019 0.263411 -2.92127e-21)
(3.86194 0.297583 3.81401e-21)
(3.68674 0.336288 -1.30885e-20)
(3.49305 0.380058 -2.74228e-21)
(3.27929 0.429451 3.04881e-21)
(3.04386 0.485036 1.4892e-20)
(2.7852 0.547372 8.9773e-21)
(2.50185 0.616954 0)
(2.19228 0.694211 1.25082e-20)
(1.85583 0.779218 -1.10396e-20)
(1.48814 0.871989 8.46325e-21)
(1.09654 0.9663 -9.7732e-21)
(0.671778 1.02048 1.29094e-20)
(0.194862 0.759273 -2.34662e-20)
(5.36219 0.0176214 0)
(5.35222 0.0200208 0)
(5.34094 0.022501 0)
(5.32828 0.0251747 0)
(5.31415 0.0281058 -6.59575e-20)
(5.29842 0.0313347 0)
(5.28093 0.0349037 0)
(5.26151 0.038863 -3.20868e-21)
(5.23996 0.0432682 3.44896e-21)
(5.21605 0.0481813 -1.20215e-20)
(5.18953 0.0536711 -4.53354e-21)
(5.16012 0.0598184 0)
(5.12753 0.0667067 -2.13497e-20)
(5.0913 0.0744578 1.0771e-20)
(5.05115 0.0831475 3.24964e-20)
(5.00668 0.0929298 -2.59172e-21)
(4.95722 0.103978 2.7401e-20)
(4.90232 0.116451 0)
(4.8414 0.130541 0)
(4.77376 0.146481 -1.15312e-20)
(4.69863 0.164532 -3.68132e-21)
(4.6152 0.184989 -3.58958e-22)
(4.52256 0.208189 5.0556e-21)
(4.41971 0.234509 1.28515e-20)
(4.30557 0.264376 -4.05367e-21)
(4.17897 0.298267 4.52299e-21)
(4.03863 0.336709 0)
(3.88322 0.380283 1.35282e-20)
(3.71131 0.429619 0)
(3.52143 0.485389 1.93919e-20)
(3.31204 0.548302 0)
(3.08165 0.619077 -1.03901e-20)
(2.82872 0.698432 -2.01683e-20)
(2.55187 0.78701 4.958e-21)
(2.24962 0.885414 -5.51168e-21)
(1.92134 0.993853 -1.29633e-20)
(1.56266 1.11255 0)
(1.17991 1.23377 -8.4986e-21)
(0.760097 1.30401 1.11414e-20)
(0.259583 0.967226 1.43936e-20)
(5.36281 0.0214858 -4.58299e-20)
(5.35299 0.0244023 -5.38985e-21)
(5.34185 0.0274227 5.85052e-21)
(5.32934 0.0306773 -7.04209e-21)
(5.31538 0.0342438 3.77883e-21)
(5.29984 0.0381726 4.00566e-20)
(5.28255 0.0425152 0)
(5.26335 0.047332 0)
(5.24204 0.0526906 0)
(5.21841 0.0586659 1.55776e-20)
(5.19221 0.0653415 1.77559e-20)
(5.16315 0.0728153 0)
(5.13096 0.0811886 2.66831e-20)
(5.0952 0.0906086 -3.26385e-21)
(5.05558 0.101169 -1.56061e-20)
(5.01171 0.113053 -1.8833e-20)
(4.96295 0.126472 -4.67564e-20)
(4.90885 0.141618 0)
(4.84886 0.158722 -1.76184e-20)
(4.78228 0.178066 -2.16098e-20)
(4.70839 0.199965 -3.4804e-21)
(4.62639 0.224775 8.16255e-21)
(4.53541 0.252899 -9.94083e-21)
(4.43449 0.284793 5.79071e-21)
(4.32258 0.320971 0)
(4.19856 0.362005 -1.7444e-20)
(4.06123 0.408529 0)
(3.9093 0.461241 -1.61582e-20)
(3.74141 0.520896 1.47928e-20)
(3.55617 0.588303 -1.39614e-20)
(3.35212 0.66431 2.1338e-20)
(3.12784 0.749785 1.8622e-20)
(2.88188 0.845596 3.73982e-20)
(2.61294 0.952537 0)
(2.31956 1.07138 -5.26157e-21)
(2.00122 1.20248 6.22088e-21)
(1.65358 1.34625 -1.34292e-20)
(1.28199 1.49335 1.61883e-20)
(0.86825 1.57887 -1.01724e-20)
(0.339346 1.16817 -6.32501e-21)
(5.36356 0.0253209 2.61226e-20)
(5.35392 0.028745 9.75295e-21)
(5.34294 0.0322982 0)
(5.33062 0.0361254 -6.68811e-21)
(5.31686 0.0403182 3.70705e-20)
(5.30153 0.044937 -3.85729e-20)
(5.28447 0.0500419 4.75071e-21)
(5.26553 0.0557036 0)
(5.24452 0.062001 -3.33692e-21)
(5.22122 0.0690219 3.58824e-21)
(5.19539 0.076864 -1.70828e-20)
(5.16675 0.085642 1.43669e-20)
(5.13504 0.0954745 2.77846e-20)
(5.09982 0.106533 0)
(5.06082 0.118929 2.95407e-20)
(5.01767 0.132873 1.81746e-20)
(4.96974 0.148614 1.95043e-20)
(4.91659 0.166375 2.69561e-20)
(4.85768 0.186426 3.33094e-20)
(4.79237 0.209095 2.57229e-20)
(4.71994 0.234746 -3.29207e-21)
(4.63963 0.263795 -3.07641e-20)
(4.5506 0.29671 -3.81363e-22)
(4.45195 0.334019 2.78773e-20)
(4.34267 0.376319 -2.7103e-20)
(4.22171 0.424273 1.66571e-20)
(4.08791 0.478616 -5.17022e-21)
(3.94007 0.540154 5.73777e-21)
(3.77692 0.609764 -1.43495e-20)
(3.59712 0.688379 0)
(3.39934 0.776984 -3.4785e-20)
(3.18223 0.876585 -2.96251e-20)
(2.94444 0.988196 -6.91272e-21)
(2.68476 1.11275 -1.20144e-20)
(2.40179 1.2512 -2.04664e-22)
(2.09513 1.40403 1.62582e-20)
(1.76044 1.57183 1.25456e-20)
(1.40221 1.74358 0)
(0.995577 1.84325 1.7069e-20)
(0.433193 1.36013 5.62933e-21)
(5.36443 0.0291212 -7.47916e-20)
(5.355 0.0330424 9.27681e-21)
(5.34421 0.0371196 5.55984e-21)
(5.3321 0.0415101 3.2929e-22)
(5.31857 0.0463186 -6.90192e-21)
(5.30349 0.0516156 0)
(5.28671 0.0574699 0)
(5.26807 0.0639618 -4.2543e-20)
(5.24739 0.0711812 -3.08033e-20)
(5.22447 0.0792283 -2.12394e-20)
(5.19906 0.0882147 0)
(5.17091 0.098271 -1.87778e-20)
(5.13975 0.109533 -3.73566e-20)
(5.10516 0.122195 -5.96906e-21)
(5.06688 0.136386 -2.86077e-20)
(5.02455 0.152343 1.71324e-20)
(4.97756 0.170349 0)
(4.9255 0.190658 -2.62794e-20)
(4.86785 0.213578 -2.02849e-20)
(4.80398 0.239477 4.71048e-21)
(4.73323 0.268772 0)
(4.65485 0.301929 3.30593e-20)
(4.56807 0.339479 3.55367e-22)
(4.47202 0.382021 -4.77361e-20)
(4.36576 0.430225 5.58688e-22)
(4.2483 0.484842 -3.05768e-20)
(4.11855 0.546699 0)
(3.9754 0.616707 0)
(3.81765 0.695852 -2.60404e-20)
(3.64408 0.785186 4.06151e-21)
(3.45346 0.88582 1.4294e-20)
(3.24453 0.998891 0)
(3.01605 1.12555 2.4924e-20)
(2.76693 1.26687 6.89365e-21)
(2.49585 1.42396 1.26725e-20)
(2.20252 1.59742 -1.88415e-20)
(1.88264 1.78805 -1.10139e-20)
(1.53982 1.983 3.37651e-22)
(1.14119 2.09542 -2.35326e-20)
(0.540123 1.54132 9.9701e-21)
(5.36543 0.0328813 5.13472e-22)
(5.35623 0.0372874 0)
(5.34566 0.0418788 -4.10571e-20)
(5.33378 0.0468215 0)
(5.32052 0.0522338 5.37413e-20)
(5.30571 0.0581959 0)
(5.28924 0.0647848 0)
(5.27094 0.07209 4.10285e-20)
(5.25065 0.0802121 7.63132e-20)
(5.22815 0.0892634 2.05876e-20)
(5.20323 0.0993687 0)
(5.17563 0.110674 3.54694e-20)
(5.14508 0.123331 2.06726e-20)
(5.1112 0.137557 0)
(5.07373 0.153496 0)
(5.03233 0.171411 -1.66024e-20)
(4.9864 0.191618 -2.00727e-20)
(4.93556 0.2144 3.24041e-21)
(4.87933 0.240098 -3.66157e-21)
(4.81709 0.269123 0)
(4.74821 0.301935 -2.23381e-20)
(4.67202 0.339053 0)
(4.58776 0.381064 3.28281e-20)
(4.49462 0.42863 2.02863e-20)
(4.39175 0.482493 1.81518e-20)
(4.2782 0.543482 1.15436e-20)
(4.15299 0.612512 -4.19235e-21)
(4.01507 0.690586 0)
(3.86337 0.778793 7.787e-22)
(3.69677 0.878295 2.85537e-20)
(3.51414 0.990317 2.1196e-20)
(3.31435 1.11612 -4.86787e-21)
(3.09628 1.25698 -2.37587e-20)
(2.85895 1.4141 -6.09519e-22)
(2.60114 1.58874 0)
(2.32273 1.7816 1.79871e-20)
(2.0194 1.99366 0)
(1.69388 2.21014 -4.84066e-21)
(1.30399 2.33366 6.7362e-21)
(0.658992 1.71006 0)
(5.36656 0.0365953 6.82098e-20)
(5.35761 0.0414734 0)
(5.34728 0.0465677 2.94499e-20)
(5.33567 0.0520504 5.58235e-20)
(5.3227 0.058053 -5.38417e-22)
(5.30821 0.0646655 0)
(5.29207 0.0719724 -3.37592e-20)
(5.27415 0.0800722 0)
(5.25428 0.0890756 -3.93231e-20)
(5.23226 0.0991064 4.26684e-22)
(5.20788 0.110302 -7.19744e-21)
(5.18088 0.122823 -4.93069e-21)
(5.15103 0.136838 4.75681e-21)
(5.11793 0.152582 0)
(5.08136 0.170218 3.3906e-21)
(5.04098 0.19003 2.73843e-20)
(4.99623 0.212367 3.85837e-20)
(4.94675 0.237537 -2.33885e-20)
(4.89207 0.265915 2.85491e-20)
(4.83163 0.297947 0)
(4.76484 0.334138 2.15964e-20)
(4.69104 0.375053 0)
(4.60956 0.42133 -3.16935e-20)
(4.51965 0.47369 1.8618e-20)
(4.4205 0.53294 5.90903e-21)
(4.31126 0.59998 2.10055e-20)
(4.19104 0.675803 0)
(4.05889 0.761498 5.00633e-21)
(3.91383 0.858245 1.77051e-20)
(3.75488 0.967305 -1.03421e-21)
(3.58101 1.09001 -1.6095e-20)
(3.39125 1.22772 -4.72896e-21)
(3.1846 1.38184 5.20026e-21)
(2.96021 1.55369 1.12785e-20)
(2.71698 1.74467 -6.46174e-21)
(2.45495 1.95555 -7.76878e-21)
(2.16977 2.1875 -4.39657e-21)
(1.86327 2.42362 1.99571e-20)
(1.48266 2.55637 -5.87452e-21)
(0.788485 1.86481 0)
(5.36781 0.0402576 -6.49869e-20)
(5.35914 0.0455933 8.07827e-21)
(5.34908 0.0511784 -3.74786e-20)
(5.33777 0.0571876 -8.61922e-20)
(5.3251 0.063766 -4.96396e-20)
(5.31096 0.0710126 -5.62544e-20)
(5.2952 0.0790193 8.8035e-21)
(5.2777 0.0878929 -9.0795e-21)
(5.25829 0.0977538 0)
(5.23679 0.108737 0)
(5.21299 0.120992 7.36736e-21)
(5.18666 0.134693 -4.51044e-20)
(5.15756 0.150023 4.1832e-20)
(5.12533 0.167237 0)
(5.08973 0.186513 3.24257e-21)
(5.05047 0.208156 -3.00451e-20)
(5.00702 0.232543 -2.30144e-20)
(4.95901 0.26001 2.85712e-20)
(4.90604 0.290957 -6.49649e-20)
(4.84756 0.32587 4.02011e-21)
(4.78303 0.365288 -5.27041e-21)
(4.71185 0.40982 5.90173e-21)
(4.6334 0.460151 3.8446e-21)
(4.54698 0.517055 -5.72535e-20)
(4.45188 0.581396 -2.09436e-20)
(4.34732 0.654138 0)
(4.2325 0.736343 2.97354e-20)
(4.10659 0.829175 0)
(3.96873 0.933895 -1.52705e-20)
(3.81805 1.05185 -3.14543e-20)
(3.65367 1.18447 0)
(3.47475 1.3332 -4.32575e-21)
(3.28044 1.49957 4.75059e-21)
(3.07004 1.68497 -6.95774e-21)
(2.84257 1.89095 1.27878e-20)
(2.59827 2.11835 2.04937e-20)
(2.33268 2.36848 0)
(2.04677 2.62215 4.2404e-21)
(1.67572 2.76207 -5.08314e-21)
(0.927118 2.00418 0)
(5.36919 0.0438622 6.93676e-20)
(5.36083 0.0496404 -8.10643e-21)
(5.35105 0.0557031 -2.66404e-20)
(5.34006 0.0622243 4.15352e-20)
(5.32774 0.0693627 -4.08867e-20)
(5.31396 0.0772258 1.01811e-19)
(5.29861 0.0859124 3.93648e-20)
(5.28156 0.0955372 -8.69752e-21)
(5.26265 0.10623 4.60955e-20)
(5.24172 0.118136 -5.73962e-21)
(5.21856 0.131416 0)
(5.19295 0.146258 0)
(5.16467 0.162857 -6.72919e-20)
(5.13337 0.181489 -1.03877e-20)
(5.09883 0.202342 5.76421e-21)
(5.06079 0.225744 3.73507e-21)
(5.01872 0.252097 -3.88686e-20)
(4.97231 0.28176 2.11136e-20)
(4.92117 0.315161 5.20019e-20)
(4.86481 0.352815 0)
(4.80272 0.395298 -1.38623e-20)
(4.73435 0.443255 1.7161e-20)
(4.65915 0.497413 0)
(4.57648 0.558592 3.3889e-20)
(4.48572 0.627706 6.93686e-22)
(4.38618 0.705775 -2.33307e-20)
(4.27715 0.79392 -2.87744e-20)
(4.15792 0.89337 0)
(4.02775 1.00546 8.83468e-22)
(3.88591 1.1316 0)
(3.73166 1.2733 2.59779e-20)
(3.56432 1.43211 -1.49633e-20)
(3.38318 1.60961 4.49744e-21)
(3.18772 1.80732 -6.26949e-21)
(2.97707 2.02689 0)
(2.7517 2.26918 -1.86795e-20)
(2.50697 2.53565 -1.35584e-20)
(2.24293 2.80454 2.15316e-20)
(1.88153 2.94941 -4.18129e-21)
(1.07325 2.12695 5.69559e-21)
(5.3707 0.047403 0)
(5.36266 0.0536078 -7.77423e-21)
(5.3532 0.060134 1.82363e-20)
(5.34254 0.0671519 -9.67741e-21)
(5.33059 0.0748332 4.56468e-20)
(5.31721 0.083294 -5.90492e-20)
(5.3023 0.0926391 3.68634e-20)
(5.28573 0.102991 0)
(5.26737 0.114487 -3.46098e-20)
(5.24704 0.127284 -5.03748e-20)
(5.22457 0.141553 -1.90471e-20)
(5.19973 0.157493 -7.26466e-21)
(5.17233 0.175313 6.44073e-20)
(5.14203 0.195305 4.79531e-21)
(5.10863 0.21767 -5.92623e-21)
(5.07188 0.242754 6.61595e-21)
(5.0313 0.270982 2.94337e-20)
(4.9866 0.302736 -1.56685e-20)
(4.93742 0.338465 -2.5007e-20)
(4.88332 0.378714 3.89178e-21)
(4.82382 0.424088 1.39673e-20)
(4.75845 0.475264 -2.21055e-20)
(4.6867 0.533007 2.56884e-20)
(4.60803 0.598175 -2.666e-20)
(4.52187 0.671727 9.65935e-21)
(4.42764 0.754725 5.2767e-22)
(4.32475 0.848343 6.36917e-21)
(4.21258 0.953862 2.62122e-20)
(4.09055 1.07267 2.76536e-20)
(3.95805 1.20625 1.5393e-20)
(3.8145 1.35617 -4.88352e-20)
(3.65938 1.52403 8.85964e-22)
(3.49214 1.71152 0)
(3.31244 1.92019 -2.3192e-20)
(3.11955 2.15183 2.41158e-20)
(2.91415 2.40732 1.6933e-20)
(2.69142 2.68813 5.23356e-21)
(2.45014 2.96968 -1.34606e-20)
(2.09817 3.11726 0)
(1.22508 2.23205 -8.47654e-21)
(5.37234 0.0508738 1.30712e-20)
(5.36465 0.0574885 -7.20728e-20)
(5.35551 0.0644633 6.69575e-20)
(5.34522 0.0719617 0)
(5.33366 0.0801682 0)
(5.3207 0.0892065 -4.94772e-20)
(5.30625 0.0991873 -2.88445e-20)
(5.29021 0.11024 0)
(5.27242 0.122511 0)
(5.25274 0.136165 4.37966e-20)
(5.231 0.151383 1.87287e-20)
(5.20698 0.168377 6.95854e-21)
(5.18051 0.187366 -3.75995e-20)
(5.15128 0.208656 4.58914e-21)
(5.11909 0.232464 2.15088e-20)
(5.08372 0.259148 -2.5748e-20)
(5.04472 0.289155 0)
(5.00183 0.322887 -1.90193e-20)
(4.95473 0.360813 0)
(4.903 0.403501 0)
(4.84625 0.451583 4.43383e-21)
(4.78404 0.505764 -4.95714e-21)
(4.71593 0.566838 -2.50149e-20)
(4.64146 0.635696 -2.64466e-21)
(4.56014 0.71333 2.13077e-20)
(4.4715 0.800842 2.11371e-20)
(4.37504 0.899444 3.01014e-20)
(4.27028 1.01046 -3.6309e-20)
(4.15677 1.13531 -4.29477e-21)
(4.03404 1.27554 -2.90125e-20)
(3.90168 1.43276 -4.00824e-21)
(3.75932 1.60863 -1.1356e-20)
(3.6066 1.80488 1.01619e-20)
(3.44336 2.02312 -1.13692e-20)
(3.26903 2.26522 -3.52932e-20)
(3.08448 2.53213 -9.035e-21)
(2.88477 2.82507 -1.531e-20)
(2.66691 3.11682 -1.02419e-20)
(2.32355 3.26465 -8.87155e-21)
(1.38063 2.31856 1.20831e-20)
(5.3741 0.0542677 -6.08858e-20)
(5.36678 0.0612755 5.63489e-20)
(5.35798 0.0686832 0)
(5.34808 0.0766458 3.62483e-20)
(5.33694 0.0853587 3.60798e-20)
(5.32442 0.0949532 5.41345e-20)
(5.31047 0.105545 -5.44294e-20)
(5.29497 0.117271 0)
(5.2778 0.130285 0)
(5.2588 0.14476 -4.11502e-20)
(5.23783 0.160887 0)
(5.21469 0.178887 2.71369e-20)
(5.18921 0.19899 4.0881e-21)
(5.1611 0.221516 -4.39049e-21)
(5.13018 0.246691 -2.64883e-20)
(5.09627 0.27489 5.57355e-20)
(5.05893 0.306576 3.92692e-21)
(5.01794 0.342168 1.41666e-20)
(4.97302 0.382152 0)
(4.92379 0.427117 0)
(4.86991 0.477716 -4.1764e-21)
(4.81101 0.534677 -1.42386e-20)
(4.74671 0.598818 0)
(4.67662 0.671054 2.80343e-20)
(4.60035 0.752405 -4.84499e-20)
(4.51752 0.843999 0)
(4.42776 0.947075 -2.31811e-20)
(4.3307 1.06299 0)
(4.22602 1.1932 0)
(4.11343 1.33926 1.8257e-20)
(3.99266 1.50284 2.60862e-20)
(3.86352 1.68561 -3.83094e-21)
(3.72583 1.88935 -1.66132e-20)
(3.57961 2.1157 1.83919e-20)
(3.42448 2.36661 1.62631e-20)
(3.26149 2.64306 8.73251e-21)
(3.08558 2.94588 9.16349e-21)
(2.89166 3.24531 9.55772e-21)
(2.55557 3.39073 6.03705e-21)
(1.5378 2.38567 5.90213e-21)
(5.376 0.0575788 4.76278e-20)
(5.36905 0.0649616 0)
(5.36063 0.0727863 0)
(5.35113 0.0811965 -3.54229e-20)
(5.34042 0.0903961 -8.03517e-20)
(5.32838 0.100524 0)
(5.31494 0.111702 1.00912e-21)
(5.30002 0.124072 7.8043e-21)
(5.28349 0.137796 -8.4522e-21)
(5.26522 0.153055 8.86843e-22)
(5.24505 0.170047 4.5234e-20)
(5.22283 0.189003 -2.66011e-20)
(5.19839 0.210162 0)
(5.17146 0.233857 4.48604e-21)
(5.14188 0.260324 -4.81817e-21)
(5.10948 0.289948 -4.73423e-20)
(5.07389 0.323208 0)
(5.03488 0.360538 3.41507e-20)
(4.99223 0.402436 -2.05896e-20)
(4.94561 0.44951 1.82068e-20)
(4.89472 0.50243 4.09395e-20)
(4.83926 0.561938 1.40963e-20)
(4.77891 0.628872 2.11038e-20)
(4.71336 0.704165 0)
(4.64231 0.788855 3.10583e-20)
(4.56549 0.884086 1.73446e-20)
(4.48263 0.991116 2.56264e-20)
(4.39351 1.11132 -1.21507e-20)
(4.29793 1.24616 -6.68744e-21)
(4.19575 1.39723 -1.95713e-20)
(4.08688 1.56618 -1.76511e-20)
(3.97132 1.75473 4.60639e-20)
(3.84903 1.96467 1.65024e-20)
(3.72028 2.19765 -1.79384e-20)
(3.58483 2.45564 3.26096e-21)
(3.44391 2.73968 -3.54152e-21)
(3.2923 3.05009 3.32814e-21)
(3.12261 3.35455 -3.68883e-21)
(2.79206 3.49481 -7.92495e-21)
(1.69437 2.43277 1.28716e-21)
(5.37804 0.0608026 -3.35397e-20)
(5.37147 0.0685382 -1.27208e-20)
(5.36343 0.0767651 0)
(5.35436 0.0856064 0)
(5.3441 0.0952723 7.1827e-22)
(5.33254 0.105911 -4.37977e-20)
(5.31965 0.117648 7.5639e-21)
(5.30533 0.130632 2.16465e-20)
(5.28948 0.145031 -2.86286e-20)
(5.27196 0.161034 3.40146e-20)
(5.25265 0.178845 -1.10194e-21)
(5.23138 0.198706 0)
(5.20802 0.220863 0)
(5.18232 0.245657 0)
(5.15413 0.273336 0)
(5.12332 0.304292 2.28881e-20)
(5.08953 0.339017 0)
(5.05259 0.377959 -3.77648e-20)
(5.01229 0.421624 2.49867e-20)
(4.96838 0.470634 -1.80953e-20)
(4.92058 0.525671 -3.22886e-20)
(4.86866 0.587489 1.68703e-20)
(4.81238 0.656937 -1.10881e-20)
(4.75151 0.734958 3.52349e-20)
(4.68583 0.8226 -3.41998e-20)
(4.61517 0.921015 -1.69651e-20)
(4.53939 1.03147 -1.98081e-20)
(4.45837 1.15533 0)
(4.37208 1.29409 1.32339e-20)
(4.28053 1.44931 2.9051e-20)
(4.1838 1.62265 1.29643e-20)
(4.08204 1.81584 -3.18988e-20)
(3.97543 2.03064 -1.0536e-20)
(3.86441 2.26873 1.88439e-20)
(3.74897 2.53206 2.86944e-21)
(3.63045 2.8217 2.72465e-21)
(3.50339 3.13739 -7.95629e-21)
(3.35792 3.44415 0)
(3.03076 3.5764 1.02743e-21)
(1.84801 2.45945 -4.72708e-21)
(5.38024 0.0639373 3.34227e-20)
(5.37403 0.0719989 -6.40625e-21)
(5.36639 0.0806124 -4.9581e-20)
(5.35776 0.0898691 0)
(5.34797 0.09998 4.71118e-20)
(5.33692 0.111104 -1.49779e-20)
(5.3246 0.123372 6.14323e-20)
(5.31091 0.136938 -4.21918e-20)
(5.29575 0.151977 3.60069e-20)
(5.27902 0.168683 -3.16978e-20)
(5.26059 0.187268 -4.25486e-20)
(5.24032 0.207979 0)
(5.21808 0.231071 0)
(5.19366 0.256893 0)
(5.16691 0.285702 -1.77701e-20)
(5.13773 0.317896 -2.1028e-20)
(5.10582 0.353974 2.87056e-20)
(5.071 0.394398 -3.42915e-20)
(5.03314 0.439679 -1.83079e-20)
(4.992 0.490449 5.79698e-21)
(4.94738 0.547395 -3.60455e-20)
(4.8991 0.611281 -1.65246e-20)
(4.84699 0.682959 -1.47343e-20)
(4.79089 0.763376 -2.85283e-20)
(4.7307 0.853579 6.1766e-20)
(4.66632 0.95472 -3.7073e-21)
(4.59773 1.06806 -4.50491e-21)
(4.52495 1.19496 2.44626e-20)
(4.44809 1.33689 -1.10807e-20)
(4.3673 1.4954 -1.69313e-20)
(4.28282 1.67215 2.10993e-20)
(4.19501 1.86881 1.29196e-20)
(4.10422 2.08716 0)
(4.01107 2.32881 -9.81777e-21)
(3.91578 2.59573 0)
(3.8198 2.88895 0)
(3.71727 3.20762 8.5394e-21)
(3.59569 3.51385 0)
(3.26926 3.63524 0)
(1.9963 2.46553 0)
(5.38263 0.066925 -5.24492e-20)
(5.37672 0.075341 0)
(5.3695 0.0843252 1.10076e-19)
(5.36134 0.0939773 -6.21022e-20)
(5.35202 0.104512 0)
(5.3415 0.116096 4.6633e-20)
(5.32976 0.128866 -5.71522e-21)
(5.31672 0.142982 6.89579e-21)
(5.30229 0.158623 -7.47563e-21)
(5.28637 0.17599 7.02046e-20)
(5.26886 0.1953 -3.96161e-20)
(5.24961 0.216806 0)
(5.22854 0.24077 -2.59032e-20)
(5.20543 0.267546 3.89054e-21)
(5.18017 0.297402 3.02365e-20)
(5.15269 0.330735 3.53738e-20)
(5.12269 0.368053 -1.90127e-20)
(5.09006 0.409828 3.38238e-20)
(5.05469 0.456571 -3.49548e-21)
(5.0164 0.50892 5.43815e-21)
(4.97503 0.567568 1.95681e-20)
(4.93046 0.633276 0)
(4.88259 0.706897 2.15223e-20)
(4.83135 0.789373 -2.4953e-20)
(4.77671 0.881745 -2.47981e-20)
(4.71869 0.985152 -3.56697e-21)
(4.65738 1.10084 3.93954e-21)
(4.59291 1.23014 -1.91244e-20)
(4.52553 1.37451 1.08659e-20)
(4.45556 1.53547 -1.39689e-20)
(4.38339 1.71463 -1.03574e-20)
(4.30955 1.91362 1.6473e-20)
(4.23458 2.13418 -1.05926e-20)
(4.15931 2.37787 0)
(4.08414 2.64663 5.009e-21)
(4.01065 2.94141 1.89904e-21)
(3.93237 3.26075 -4.8079e-21)
(3.834 3.5636 1.36448e-21)
(3.50507 3.67125 -1.09008e-22)
(2.13667 2.451 -1.10119e-21)
(5.38506 0.0698606 4.12581e-20)
(5.37956 0.0785195 -5.96337e-21)
(5.37283 0.0878967 -4.71258e-20)
(5.36509 0.097927 1.28983e-21)
(5.35625 0.108862 0)
(5.34627 0.12088 -3.89171e-20)
(5.33514 0.134122 0)
(5.32277 0.148753 -6.6175e-21)
(5.30909 0.164958 7.17586e-21)
(5.294 0.182942 -3.84562e-20)
(5.27743 0.202928 4.37402e-20)
(5.25925 0.225173 0)
(5.23937 0.249945 5.02449e-20)
(5.21762 0.2776 0)
(5.19388 0.308415 -6.24804e-22)
(5.16813 0.342789 -2.46336e-20)
(5.1401 0.381232 5.62019e-21)
(5.10971 0.424223 2.71037e-20)
(5.07688 0.472273 7.89899e-22)
(5.04148 0.526022 0)
(5.00341 0.586159 0)
(4.96261 0.653444 3.55656e-21)
(4.91905 0.728721 -1.65213e-20)
(4.87272 0.812921 1.9844e-20)
(4.82368 0.907069 1.58902e-20)
(4.77206 1.01228 0)
(4.71804 1.12978 0)
(4.66191 1.26087 0)
(4.60401 1.40695 1.76275e-20)
(4.54483 1.56951 8.28861e-21)
(4.48493 1.75009 5.56384e-21)
(4.42498 1.95027 -7.66062e-21)
(4.36573 2.17173 1.26814e-21)
(4.30817 2.41597 3.21739e-21)
(4.25294 2.68484 -6.62213e-21)
(4.20168 2.97918 0)
(4.14713 3.29692 0)
(4.07088 3.59352 0)
(3.73559 3.6846 9.79441e-22)
(2.26651 2.41609 -1.97992e-22)
(5.38764 0.0733319 -3.91214e-20)
(5.38223 0.0816637 0)
(5.37624 0.0913166 -6.5534e-21)
(5.36901 0.101711 7.35779e-20)
(5.36065 0.113025 3.83858e-22)
(5.35123 0.125449 2.90987e-20)
(5.34071 0.139132 -3.71356e-20)
(5.32903 0.154243 -6.03424e-21)
(5.31612 0.170973 -2.77949e-20)
(5.3019 0.18953 -3.17199e-20)
(5.28629 0.210141 0)
(5.2692 0.233067 1.52243e-20)
(5.25054 0.25858 -1.85543e-20)
(5.23018 0.287038 -2.3251e-20)
(5.208 0.318727 -3.48947e-20)
(5.18402 0.354041 0)
(5.158 0.393492 2.13388e-20)
(5.12987 0.437565 -3.01007e-20)
(5.09963 0.486766 4.57993e-21)
(5.06716 0.541732 0)
(5.03244 0.603149 0)
(4.99544 0.671765 -1.24261e-20)
(4.95621 0.748412 0)
(4.91481 0.834003 -1.68421e-20)
(4.87139 0.929539 -2.09668e-20)
(4.82618 1.03611 1.10924e-20)
(4.77945 1.15489 -1.25558e-20)
(4.7316 1.28715 -3.71812e-21)
(4.68314 1.43423 -1.32574e-20)
(4.63465 1.59755 -2.21594e-21)
(4.58687 1.7786 2.42505e-21)
(4.54065 1.97886 -1.32645e-20)
(4.49688 2.19994 5.81452e-21)
(4.45674 2.44323 2.55798e-21)
(4.42108 2.71054 3.4558e-21)
(4.39161 3.00249 5.31173e-22)
(4.36001 3.31641 -5.5515e-22)
(4.30441 3.60389 -2.07866e-23)
(3.95826 3.67572 0)
(2.38301 2.36123 -1.54391e-21)
(5.39021 0.0763636 3.86083e-20)
(5.38514 0.0848235 5.5569e-21)
(5.37974 0.0946428 -6.06539e-21)
(5.37304 0.105337 0)
(5.36521 0.116995 0)
(5.35636 0.129795 3.60053e-20)
(5.34647 0.143887 4.75048e-20)
(5.3355 0.159444 -1.18895e-20)
(5.32337 0.176659 3.75492e-20)
(5.31003 0.195744 5.7924e-20)
(5.29542 0.216929 -3.45601e-20)
(5.27943 0.240477 -4.52374e-20)
(5.26203 0.266664 -1.97493e-20)
(5.24308 0.295848 4.23077e-21)
(5.22249 0.328323 -3.16126e-21)
(5.20031 0.364476 8.64238e-21)
(5.17632 0.404818 -6.01708e-21)
(5.15049 0.449839 3.15878e-21)
(5.12286 0.500034 2.55573e-20)
(5.09336 0.556038 -4.42417e-21)
(5.062 0.618524 7.54562e-21)