/*--------------------------------*- C++ -*----------------------------------*\
  =========                 |
  \\      /  F ield         | OpenFOAM: The Open Source CFD Toolbox
   \\    /   O peration     | Website:  https://openfoam.org
    \\  /    A nd           | Version:  13
     \\/     M anipulation  |
\*---------------------------------------------------------------------------*/
FoamFile
{
    format      ascii;
    class       volVectorField;
    location    "276";
    object      wallShearStress;
}
// * * * * * * * * * * * * * * * * * * * * * * * * * * * * * * * * * * * * * //

dimensions      [0 2 -2 0 0 0 0];

internalField   uniform (0 0 0);

boundaryField
{
    above
    {
        type            calculated;
        value           uniform (0 0 0);
    }
    top
    {
        type            calculated;
        value           uniform (0 0 0);
    }
    inlet
    {
        type            calculated;
        value           uniform (0 0 0);
    }
    outlet
    {
        type            calculated;
        value           uniform (0 0 0);
    }
    plate
    {
        type            calculated;
        value           nonuniform List<vector> 
340
(
(-0.184151 -0.0799645 0)
(-0.178543 -0.229552 -7.04686e-21)
(-0.196065 -0.37076 6.39609e-21)
(-0.228138 -0.513417 1.70607e-20)
(-0.270874 -0.654036 -1.03362e-20)
(-0.323239 -0.790266 4.52393e-21)
(-0.384667 -0.920634 -4.02926e-21)
(-0.454529 -1.04393 -7.14222e-21)
(-0.53209 -1.15904 0)
(-0.616516 -1.26492 0)
(-0.706856 -1.36068 0)
(-0.802043 -1.4455 -4.36925e-21)
(-0.900882 -1.51871 6.25624e-21)
(-1.00206 -1.57967 -8.77358e-21)
(-1.10417 -1.62787 -4.48599e-21)
(-1.20576 -1.6629 -1.03102e-21)
(-1.30527 -1.6845 3.33907e-21)
(-1.40109 -1.69255 0)
(-1.49151 -1.68708 6.92924e-22)
(-1.57476 -1.66827 -2.98774e-22)
(-1.64901 -1.63643 1.06064e-21)
(-1.71231 -1.59228 0)
(-1.76225 -1.53603 0)
(-1.79713 -1.46782 5.17583e-21)
(-1.81625 -1.38838 -8.35581e-21)
(-1.81888 -1.29892 6.70162e-21)
(-1.80425 -1.20114 -7.1981e-21)
(-1.7717 -1.097 4.00464e-21)
(-1.72082 -0.988561 0)
(-1.65172 -0.877914 -9.48304e-21)
(-1.56504 -0.767154 1.01716e-20)
(-1.46207 -0.658356 -1.64634e-20)
(-1.34471 -0.553546 1.77016e-20)
(-1.21549 -0.454651 -3.12661e-22)
(-1.07755 -0.363435 -1.00618e-20)
(-0.934535 -0.281441 3.64237e-21)
(-0.790447 -0.209955 -3.64905e-21)
(-0.649385 -0.149968 1.9829e-21)
(-0.515474 -0.102331 1.07154e-21)
(-0.391147 -0.0666116 5.52035e-22)
(-0.287485 -0.0379999 0)
(-0.211048 -0.0179921 0)
(-0.154127 -0.00834327 0)
(-0.111224 -0.0045962 0)
(-0.078233 -0.00339252 0)
(-0.0522297 -0.00288628 0)
(-0.031324 -0.00230229 0)
(-0.0144309 -0.00148721 0)
(-0.000918201 -0.000586185 0)
(0.00970427 0.000192752 0)
(0.0179407 0.000728392 0)
(0.0243006 0.00102664 0)
(0.0292115 0.00116895 0)
(0.0329663 0.00124091 0)
(0.0357371 0.0012962 0)
(0.0376194 0.00135047 0)
(0.0386843 0.00139543 0)
(0.0390106 0.00141887 0)
(0.0386881 0.0014196 0)
(0.037792 0.00140428 0)
(0.0363783 0.00138228 0)
(0.0344775 0.00136091 0)
(0.0321035 0.00134298 0)
(0.0292611 0.00132892 0)
(0.0259492 0.00131791 0)
(0.0221697 0.00130825 0)
(0.0179243 0.0012993 0)
(0.013214 0.0012907 0)
(0.0080392 0.00128288 0)
(0.00239653 0.00127615 0)
(-0.0037135 0.00126695 0)
(-0.0102701 0.00125127 0)
(-0.017233 0.00122826 0)
(-0.0245599 0.00119957 0)
(-0.0322079 0.00116458 0)
(-0.0401163 0.00112145 0)
(-0.0482074 0.00107015 0)
(-0.0563962 0.00101144 0)
(-0.0645913 0.000945987 0)
(-0.0726945 0.000874614 0)
(-0.0806038 0.000798624 0)
(-0.0882188 0.000719653 0)
(-0.0954457 0.000639486 0)
(-0.102201 0.000559997 0)
(-0.108417 0.000482907 0)
(-0.11404 0.000409788 0)
(-0.119038 0.000341963 0)
(-0.123396 0.000280087 0)
(-0.127112 0.000224758 0)
(-0.130205 0.000176338 0)
(-0.1327 0.000134167 0)
(-0.134625 9.77369e-05 0)
(-0.136016 6.70154e-05 0)
(-0.136918 4.16956e-05 0)
(-0.137381 2.11749e-05 0)
(-0.137455 4.84812e-06 0)
(-0.137188 -7.9081e-06 0)
(-0.136625 -1.78321e-05 0)
(-0.135801 -2.54403e-05 0)
(-0.134751 -3.10951e-05 0)
(-0.133506 -3.51367e-05 0)
(-0.132094 -3.78863e-05 0)
(-0.130541 -3.95428e-05 0)
(-0.128871 -4.02998e-05 0)
(-0.127105 -4.0432e-05 0)
(-0.125258 -4.01061e-05 0)
(-0.123344 -3.94144e-05 0)
(-0.121376 -3.84516e-05 0)
(-0.119363 -3.72641e-05 0)
(-0.117317 -3.5875e-05 0)
(-0.11525 -3.43526e-05 0)
(-0.113169 -3.27572e-05 0)
(-0.111083 -3.11365e-05 0)
(-0.108996 -2.95161e-05 0)
(-0.106914 -2.79282e-05 0)
(-0.104837 -2.64262e-05 0)
(-0.102765 -2.49808e-05 0)
(-0.100704 -2.35389e-05 0)
(-0.0986615 -2.20576e-05 0)
(-0.0966509 -2.05368e-05 0)
(-0.0947314 -1.9139e-05 0)
(-0.0929286 -1.79268e-05 0)
(-0.0912168 -1.68212e-05 0)
(-0.0895898 -1.58052e-05 0)
(-0.088041 -1.48757e-05 0)
(-0.0865645 -1.40179e-05 0)
(-0.0851561 -1.32076e-05 0)
(-0.0838138 -1.24301e-05 0)
(-0.0825359 -1.16841e-05 0)
(-0.0813203 -1.09803e-05 0)
(-0.0801637 -1.03221e-05 0)
(-0.0790629 -9.70566e-06 0)
(-0.0780149 -9.12433e-06 0)
(-0.0770178 -8.57178e-06 0)
(-0.0760695 -8.05096e-06 0)
(-0.0751676 -7.56522e-06 0)
(-0.0743095 -7.10917e-06 0)
(-0.0734932 -6.67991e-06 0)
(-0.0727165 -6.27612e-06 0)
(-0.071978 -5.88967e-06 0)
(-0.0712769 -5.5186e-06 0)
(-0.0706122 -5.16619e-06 0)
(-0.0699826 -4.82842e-06 0)
(-0.0693876 -4.50204e-06 0)
(-0.0688266 -4.18683e-06 0)
(-0.0682993 -3.88279e-06 0)
(-0.0678046 -3.59104e-06 0)
(-0.0673421 -3.30925e-06 0)
(-0.0669118 -3.03396e-06 0)
(-0.0665135 -2.7666e-06 0)
(-0.0661466 -2.51115e-06 0)
(-0.0658103 -2.26685e-06 0)
(-0.0655038 -2.03339e-06 0)
(-0.0652262 -1.81531e-06 0)
(-0.0649757 -1.61273e-06 0)
(-0.0647513 -1.41913e-06 0)
(-0.0645523 -1.23716e-06 0)
(-0.0643771 -1.07398e-06 0)
(-0.0642232 -9.3037e-07 0)
(-0.0640879 -8.08595e-07 0)
(-0.0639683 -7.10121e-07 0)
(-0.0638612 -6.26695e-07 0)
(-0.0637657 -5.4728e-07 0)
(-0.0636816 -4.77144e-07 0)
(-0.0636066 -4.23713e-07 0)
(-0.0635382 -3.85813e-07 0)
(-0.0634741 -3.57937e-07 0)
(-0.0634137 -3.39956e-07 0)
(-0.0633543 -3.01179e-07 0)
(-0.0633072 -2.44709e-07 0)
(-0.063263 -2.57393e-07 0)
(-0.0632105 -2.30325e-07 0)
(-0.0631851 5.11289e-08 0)
(-0.0632409 5.41632e-07 0)
(-0.0633965 1.02491e-06 0)
(-0.0636319 1.35246e-06 0)
(-0.0639133 1.50458e-06 0)
(-0.0642118 1.52855e-06 0)
(-0.0645091 1.47954e-06 0)
(-0.0647958 1.39898e-06 0)
(-0.0650685 1.30361e-06 0)
(-0.065324 1.25473e-06 0)
(-0.0655845 1.15793e-06 0)
(-0.0658008 1.05744e-06 0)
(-0.0660318 1.30902e-06 0)
(-0.0663756 1.87557e-06 0)
(-0.066856 2.36718e-06 0)
(-0.0674172 2.56315e-06 0)
(-0.0679924 2.50455e-06 0)
(-0.06854 2.31401e-06 0)
(-0.0690434 2.12541e-06 0)
(-0.0695182 1.83969e-06 0)
(-0.0698966 1.69197e-06 0)
(-0.0703224 2.04593e-06 0)
(-0.0708911 2.52586e-06 0)
(-0.0715541 2.69144e-06 0)
(-0.0722115 2.49405e-06 0)
(-0.0727905 2.10146e-06 0)
(-0.0732666 1.68482e-06 0)
(-0.0736482 1.32728e-06 0)
(-0.0739517 1.03945e-06 0)
(-0.0741921 8.10074e-07 0)
(-0.0743812 6.25955e-07 0)
(-0.0745285 4.89576e-07 0)
(-0.0746476 3.2005e-07 0)
(-0.0747031 3.58264e-07 0)
(-0.0748502 7.08053e-07 0)
(-0.0751114 9.34082e-07 0)
(-0.0753854 8.51289e-07 0)
(-0.0756016 6.11656e-07 0)
(-0.0757425 3.66881e-07 0)
(-0.0758173 1.6444e-07 0)
(-0.0758412 1.68111e-08 0)
(-0.075827 -9.29074e-08 0)
(-0.0757841 -1.73135e-07 0)
(-0.0757189 -2.34338e-07 0)
(-0.0756361 -2.8155e-07 0)
(-0.0755388 -3.22517e-07 0)
(-0.075427 -3.59401e-07 0)
(-0.075303 -3.87913e-07 0)
(-0.0751693 -4.08757e-07 0)
(-0.075028 -4.24556e-07 0)
(-0.0748801 -4.37124e-07 0)
(-0.0747264 -4.469e-07 0)
(-0.0745678 -4.54446e-07 0)
(-0.0744048 -4.60636e-07 0)
(-0.0742378 -4.6547e-07 0)
(-0.0740671 -4.68868e-07 0)
(-0.0738931 -4.7193e-07 0)
(-0.0737162 -4.73232e-07 0)
(-0.0735365 -4.7459e-07 0)
(-0.0733544 -4.73361e-07 0)
(-0.0731706 -4.72531e-07 0)
(-0.072985 -4.70443e-07 0)
(-0.0727978 -4.68831e-07 0)
(-0.0726093 -4.65645e-07 0)
(-0.0724195 -4.6321e-07 0)
(-0.0722286 -4.59113e-07 0)
(-0.0720372 -4.5494e-07 0)
(-0.0718453 -4.49894e-07 0)
(-0.071653 -4.45511e-07 0)
(-0.0714604 -4.4042e-07 0)
(-0.0712674 -4.36234e-07 0)
(-0.071074 -4.31335e-07 0)
(-0.0708805 -4.25782e-07 0)
(-0.0706872 -4.19783e-07 0)
(-0.0704943 -4.13875e-07 0)
(-0.0703018 -4.07957e-07 0)
(-0.0701095 -4.02609e-07 0)
(-0.0699173 -3.97713e-07 0)
(-0.069725 -3.92596e-07 0)
(-0.0695329 -3.87075e-07 0)
(-0.0693411 -3.81892e-07 0)
(-0.0691495 -3.76626e-07 0)
(-0.0689583 -3.7098e-07 0)
(-0.0687677 -3.65063e-07 0)
(-0.0685778 -3.59413e-07 0)
(-0.0683885 -3.53479e-07 0)
(-0.0682001 -3.47218e-07 0)
(-0.0680129 -3.40593e-07 0)
(-0.0678265 -3.35675e-07 0)
(-0.0676409 -3.29884e-07 0)
(-0.0674556 -3.25523e-07 0)
(-0.0672709 -3.20385e-07 0)
(-0.0670866 -3.1603e-07 0)
(-0.0669023 -3.11314e-07 0)
(-0.0667185 -3.07403e-07 0)
(-0.0665352 -3.02019e-07 0)
(-0.0663526 -2.97941e-07 0)
(-0.0661705 -2.9295e-07 0)
(-0.0659888 -2.89683e-07 0)
(-0.065807 -2.87476e-07 0)
(-0.0656248 -2.82816e-07 0)
(-0.0654416 -3.04344e-07 0)
(-0.0652563 -2.56998e-07 0)
(-0.0650741 -3.47284e-07 0)
(-0.0647839 -4.5728e-07 0)
(-0.0645001 -4.11862e-07 0)
(-0.0642657 -2.99654e-07 0)
(-0.0640614 -2.63166e-07 0)
(-0.0638788 -2.41216e-07 0)
(-0.063711 -2.33564e-07 0)
(-0.0635491 -2.19455e-07 0)
(-0.0633906 -2.16639e-07 0)
(-0.063234 -2.07775e-07 0)
(-0.0630787 -2.05786e-07 0)
(-0.0629229 -2.00469e-07 0)
(-0.0627665 -1.97492e-07 0)
(-0.0626093 -1.93378e-07 0)
(-0.0624516 -1.94418e-07 0)
(-0.0622935 -1.79754e-07 0)
(-0.0621346 -1.83491e-07 0)
(-0.0619752 -1.75918e-07 0)
(-0.061815 -1.76035e-07 0)
(-0.0616541 -1.69675e-07 0)
(-0.0614923 -1.68836e-07 0)
(-0.0613301 -1.63603e-07 0)
(-0.0611676 -1.61009e-07 0)
(-0.0610047 -1.57532e-07 0)
(-0.0608413 -1.54726e-07 0)
(-0.0606772 -1.51458e-07 0)
(-0.0605123 -1.48598e-07 0)
(-0.0603469 -1.45324e-07 0)
(-0.0601814 -1.41953e-07 0)
(-0.0600157 -1.38653e-07 0)
(-0.0598497 -1.35819e-07 0)
(-0.0596834 -1.31365e-07 0)
(-0.0595166 -1.29353e-07 0)
(-0.0593496 -1.24527e-07 0)
(-0.0591827 -1.24422e-07 0)
(-0.0590159 -1.18017e-07 0)
(-0.0588488 -1.19731e-07 0)
(-0.0586816 -1.11162e-07 0)
(-0.058514 -1.169e-07 0)
(-0.0583467 -1.1007e-07 0)
(-0.0581795 -1.07544e-07 0)
(-0.0580125 -1.04038e-07 0)
(-0.0578454 -1.02221e-07 0)
(-0.0576783 -9.94121e-08 0)
(-0.0575111 -9.77325e-08 0)
(-0.0573442 -9.38648e-08 0)
(-0.0571775 -9.31485e-08 0)
(-0.057011 -8.96249e-08 0)
(-0.0568447 -7.59884e-08 0)
(-0.0566779 -9.65025e-08 0)
(-0.0565121 -7.32742e-08 0)
(-0.0563455 -9.6901e-08 0)
(-0.0561804 -6.39454e-08 0)
(-0.0560141 -9.53405e-08 0)
(-0.0558493 -5.77738e-08 0)
(-0.0556834 -9.43164e-08 0)
(-0.0555185 -7.4082e-08 0)
(-0.0553537 -7.04637e-08 0)
(-0.055188 -7.1628e-08 0)
(-0.055023 -6.97719e-08 0)
(-0.0548526 -6.86621e-08 0)
(-0.0546962 -6.93291e-08 0)
(-0.0544912 -5.93687e-08 0)
(-0.0544216 -6.14645e-08 0)
(-0.0541069 -8.25373e-08 0)
)
;
    }
    defaultFaces
    {
        type            empty;
    }
}


// ************************************************************************* //
